LAMMPS (22 Jul 2025 - Update 1)
# LAMMPS input script: Speed of Sound Experiment
# Measures oscillation frequency of released divider wall

units           lj
dimension       2
atom_style      atomic
atom_modify     map yes
boundary        f f p

neighbor        0.3 bin
neigh_modify    delay 0 every 1 check yes

# ============================================================================
# PARAMETERS
# ============================================================================

variable        L0 equal 10.0           # Half box width
variable        H equal 10.0            # Box height
variable        T equal 0.5             # Temperature (reduced for stability)
variable        dt equal 0.0001         # Timestep

variable        pmass equal 1.0
variable        wmass equal 20.0        # Wall mass

variable        hold_steps equal 20000  # Equilibration
variable        run_steps equal 200000  # Measurement
variable        thermo_freq equal 100
variable        dump_freq equal 500

# ============================================================================
# BOX AND PARTICLES
# ============================================================================

region          box block -${L0} ${L0} -$(v_H/2) $(v_H/2) -0.5 0.5
region          box block -10 ${L0} -$(v_H/2) $(v_H/2) -0.5 0.5
region          box block -10 10 -$(v_H/2) $(v_H/2) -0.5 0.5
region          box block -10 10 -5 $(v_H/2) -0.5 0.5
region          box block -10 10 -5 5 -0.5 0.5
create_box      2 box
Created orthogonal box = (-10 -5 -0.5) to (10 5 0.5)
  1 by 1 by 1 MPI processor grid

# Create particles on lattice to avoid overlaps
lattice         sq 0.8                  # 2D square lattice
Lattice spacing in x,y,z = 1.118034 1.118034 1.118034
region          left_fill block -$(v_L0-0.5) -0.6 -$(v_H/2-0.5) $(v_H/2-0.5) -0.5 0.5
region          left_fill block -9.5 -0.6 -$(v_H/2-0.5) $(v_H/2-0.5) -0.5 0.5
region          left_fill block -9.5 -0.6 -4.5 $(v_H/2-0.5) -0.5 0.5
region          left_fill block -9.5 -0.6 -4.5 4.5 -0.5 0.5
region          right_fill block 0.6 $(v_L0-0.5) -$(v_H/2-0.5) $(v_H/2-0.5) -0.5 0.5
region          right_fill block 0.6 9.5 -$(v_H/2-0.5) $(v_H/2-0.5) -0.5 0.5
region          right_fill block 0.6 9.5 -4.5 $(v_H/2-0.5) -0.5 0.5
region          right_fill block 0.6 9.5 -4.5 4.5 -0.5 0.5

create_atoms    1 region left_fill
Created 72 atoms
  using lattice units in orthogonal box = (-10 -5 -0.5) to (10 5 0.5)
  create_atoms CPU = 0.000 seconds
create_atoms    1 region right_fill
Created 72 atoms
  using lattice units in orthogonal box = (-10 -5 -0.5) to (10 5 0.5)
  create_atoms CPU = 0.000 seconds

mass            1 ${pmass}
mass            1 1

# Wall at center
create_atoms    2 single 0.0 0.0 0.0
Created 1 atoms
  using lattice units in orthogonal box = (-10 -5 -0.5) to (10 5 0.5)
  create_atoms CPU = 0.000 seconds
mass            2 ${wmass}
mass            2 20

group           particles type 1
144 atoms in group particles
group           wall_atom type 2
1 atoms in group wall_atom

# ============================================================================
# POTENTIALS (softer WCA for stability)
# ============================================================================

pair_style      lj/cut 1.122462
pair_modify     shift yes

# Softer epsilon for numerical stability
pair_coeff      1 1 0.5 1.0 1.122462
pair_coeff      1 2 0.5 1.0 1.122462
pair_coeff      2 2 0.0 1.0 1.122462

# ============================================================================
# BOUNDARY WALLS
# ============================================================================

fix             walls_y particles wall/reflect yhi EDGE ylo EDGE
fix             walls_x particles wall/reflect xhi EDGE xlo EDGE

# ============================================================================
# INITIALIZATION
# ============================================================================

velocity        particles create ${T} 4928459 dist gaussian
velocity        particles create 0.5 4928459 dist gaussian
velocity        particles scale ${T}
velocity        particles scale 0.5
velocity        wall_atom set 0.0 0.0 0.0

timestep        ${dt}
timestep        0.0001

fix             wall_yz wall_atom setforce NULL 0.0 0.0
fix             nve_p particles nve
fix             nve_w wall_atom nve

# ============================================================================
# COMPUTES
# ============================================================================

compute         temp_p particles temp
compute         ke_p particles ke
compute         ke_w wall_atom ke

variable        wall_x equal x[$(count(particles)+1)]
variable        wall_x equal x[145]
variable        wall_vx equal vx[$(count(particles)+1)]
variable        wall_vx equal vx[145]
variable        ke_total equal c_ke_p+c_ke_w

region          left_side block -${L0} 0.0 -$(v_H/2) $(v_H/2) -0.5 0.5
region          left_side block -10 0.0 -$(v_H/2) $(v_H/2) -0.5 0.5
region          left_side block -10 0.0 -5 $(v_H/2) -0.5 0.5
region          left_side block -10 0.0 -5 5 -0.5 0.5
region          right_side block 0.0 ${L0} -$(v_H/2) $(v_H/2) -0.5 0.5
region          right_side block 0.0 10 -$(v_H/2) $(v_H/2) -0.5 0.5
region          right_side block 0.0 10 -5 $(v_H/2) -0.5 0.5
region          right_side block 0.0 10 -5 5 -0.5 0.5

group           left_p dynamic particles region left_side every 100
dynamic group left_p defined
group           right_p dynamic particles region right_side every 100
dynamic group right_p defined

variable        n_left equal count(left_p)
variable        n_right equal count(right_p)

# ============================================================================
# OUTPUT
# ============================================================================

thermo_style    custom step temp c_temp_p c_ke_p c_ke_w v_ke_total                 v_wall_x v_wall_vx v_n_left v_n_right atoms

thermo          ${thermo_freq}
thermo          100

dump            traj all atom ${dump_freq} traj_speed_of_sound.lammpstrj
dump            traj all atom 500 traj_speed_of_sound.lammpstrj

# High-frequency wall logging
fix             wall_log all print 20                 "$(step) ${wall_x} ${wall_vx} ${n_left} ${n_right}"                 file wall_oscillation.dat screen no                 title "# Step WallX WallVx NLeft NRight"

# ============================================================================
# RUN
# ============================================================================

print           "Phase 1: Equilibration with wall fixed..."
Phase 1: Equilibration with wall fixed...
fix             hold_wall wall_atom setforce 0.0 NULL NULL
run             ${hold_steps}
run             20000
Generated 0 of 1 mixed pair_coeff terms from geometric mixing rule
Neighbor list info ...
  update: every = 1 steps, delay = 0 steps, check = yes
  max neighbors/atom: 2000, page size: 100000
  master list distance cutoff = 1.422462
  ghost atom cutoff = 1.422462
  binsize = 0.711231, bins = 29 15 2
  1 neighbor lists, perpetual/occasional/extra = 1 0 0
  (1) pair lj/cut, perpetual
      attributes: half, newton on
      pair build: half/bin/atomonly/newton
      stencil: half/bin/2d
      bin: standard
Per MPI rank memory allocation (min/avg/max) = 3.039 | 3.039 | 3.039 Mbytes
   Step          Temp         c_temp_p        c_ke_p         c_ke_w       v_ke_total      v_wall_x      v_wall_vx       v_n_left      v_n_right       Atoms   
         0   0.49652778     0.5            0.49310345     0              71.5           0              0              72             72                   145 
       100   0.49434671     0.49780368     0.49093742     0              71.185926      0              0              72             72                   145 
       200   0.48848869     0.49190469     0.4851198      0              70.342371      0              0              72             72                   145 
       300   0.47814721     0.4814909      0.47484964     0              68.853198      0              0              72             72                   145 
       400   0.46234895     0.46558216     0.45916033     0              66.578248      0              0              72             72                   145 
       500   0.44075006     0.44383223     0.4377104      0              63.468009      0              0              72             72                   145 
       600   0.41476429     0.41766474     0.41190385     0              59.726058      0              0              72             72                   145 
       700   0.38811534     0.39082943     0.38543868     0              55.888608      0              0              72             72                   145 
       800   0.36486722     0.36741873     0.36235089     0              52.540879      0              0              72             72                   145 
       900   0.34649563     0.34891867     0.344106       0              49.89537       0              0              72             72                   145 
      1000   0.33232468     0.33464863     0.33003279     0              47.854754      0              0              72             72                   145 
      1100   0.32184684     0.32409751     0.3196272      0              46.345944      0              0              72             72                   145 
      1200   0.31528157     0.31748634     0.31310722     0              45.400546      0              0              72             72                   145 
      1300   0.31287761     0.31506557     0.31071984     0              45.054376      0              0              72             72                   145 
      1400   0.31437091     0.3165693      0.31220283     0              45.26941       0              0              72             72                   145 
      1500   0.31889344     0.32112346     0.31669417     0              45.920655      0              0              72             72                   145 
      1600   0.32524732     0.32752178     0.32300424     0              46.835614      0              0              72             72                   145 
      1700   0.33230308     0.33462687     0.33001133     0              47.851643      0              0              72             72                   145 
      1800   0.33909961     0.34147094     0.336761       0              48.830344      0              0              72             72                   145 
      1900   0.34511075     0.34752411     0.34273067     0              49.695947      0              0              72             72                   145 
      2000   0.35042683     0.35287737     0.3480101      0              50.461464      0              0              72             72                   145 
      2100   0.35544196     0.35792757     0.35299064     0              51.183642      0              0              72             72                   145 
      2200   0.36041728     0.36293768     0.35793164     0              51.900088      0              0              72             72                   145 
      2300   0.36165281     0.36418185     0.35915865     0              52.078005      0              0              72             72                   145 
      2400   0.36178736     0.36431735     0.35929228     0              52.09738       0              0              72             72                   145 
      2500   0.36361513     0.36615789     0.36110744     0              52.360578      0              0              72             72                   145 
      2600   0.36750465     0.37007461     0.36497013     0              52.920669      0              0              72             72                   145 
      2700   0.37249926     0.37510415     0.3699303      0              53.639894      0              0              72             72                   145 
      2800   0.37705818     0.37969495     0.37445778     0              54.296378      0              0              72             72                   145 
      2900   0.38013831     0.38279662     0.37751667     0              54.739917      0              0              72             72                   145 
      3000   0.3814955      0.3841633      0.3788645      0              54.935352      0              0              72             72                   145 
      3100   0.3813607      0.38402756     0.37873063     0              54.915941      0              0              72             72                   145 
      3200   0.38097697     0.38364114     0.37834954     0              54.860683      0              0              72             72                   145 
      3300   0.38124103     0.38390705     0.37861178     0              54.898708      0              0              72             72                   145 
      3400   0.38237263     0.38504656     0.37973557     0              55.061658      0              0              72             72                   145 
      3500   0.38394668     0.38663163     0.38129878     0              55.288323      0              0              72             72                   145 
      3600   0.38528745     0.38798176     0.38263029     0              55.481392      0              0              72             72                   145 
      3700   0.38568141     0.38837848     0.38302154     0              55.538123      0              0              72             72                   145 
      3800   0.38467201     0.38736202     0.38201909     0              55.392769      0              0              72             72                   145 
      3900   0.38235572     0.38502953     0.37971878     0              55.059223      0              0              72             72                   145 
      4000   0.37970346     0.38235873     0.37708481     0              54.677298      0              0              72             72                   145 
      4100   0.37846583     0.38111244     0.37585572     0              54.499079      0              0              72             72                   145 
      4200   0.37996928     0.38262641     0.3773488      0              54.715577      0              0              72             72                   145 
      4300   0.38405311     0.3867388      0.38140447     0              55.303649      0              0              72             72                   145 
      4400   0.38965465     0.39237951     0.38696738     0              56.11027       0              0              72             72                   145 
      4500   0.39594032     0.39870914     0.3932097      0              57.015407      0              0              72             72                   145 
      4600   0.40243339     0.40524761     0.39965799     0              57.950408      0              0              72             72                   145 
      4700   0.40854976     0.41140676     0.40573218     0              58.831166      0              0              72             72                   145 
      4800   0.41366123     0.41655396     0.41080839     0              59.567217      0              0              72             72                   145 
      4900   0.41729593     0.42021409     0.41441803     0              60.090614      0              0              72             72                   145 
      5000   0.41931505     0.42224733     0.41642323     0              60.381368      0              0              72             72                   145 
      5100   0.41999842     0.42293547     0.41710187     0              60.479772      0              0              72             72                   145 
      5200   0.41968854     0.42262342     0.41679413     0              60.435149      0              0              72             72                   145 
      5300   0.4187693      0.42169776     0.41588124     0              60.302779      0              0              72             72                   145 
      5400   0.41763448     0.420555       0.41475424     0              60.139365      0              0              72             72                   145 
      5500   0.41686388     0.41977901     0.41398896     0              60.028399      0              0              72             72                   145 
      5600   0.41687633     0.41979155     0.41400132     0              60.030192      0              0              72             72                   145 
      5700   0.41746161     0.42038092     0.41458256     0              60.114472      0              0              72             72                   145 
      5800   0.41819222     0.42111664     0.41530814     0              60.21968       0              0              72             72                   145 
      5900   0.41882455     0.42175339     0.4159361      0              60.310735      0              0              72             72                   145 
      6000   0.41923376     0.42216547     0.4163425      0              60.369662      0              0              72             72                   145 
      6100   0.41954075     0.4224746      0.41664736     0              60.413867      0              0              72             72                   145 
      6200   0.41970181     0.42263679     0.41680731     0              60.437061      0              0              72             72                   145 
      6300   0.41926482     0.42219674     0.41637334     0              60.374134      0              0              72             72                   145 
      6400   0.41778398     0.42070555     0.41490271     0              60.160893      0              0              72             72                   145 
      6500   0.41523909     0.41814286     0.41237537     0              59.794429      0              0              72             72                   145 
      6600   0.41224801     0.41513086     0.40940492     0              59.363713      0              0              72             72                   145 
      6700   0.40999318     0.41286027     0.40716564     0              59.039018      0              0              72             72                   145 
      6800   0.40907071     0.41193135     0.40624953     0              58.906182      0              0              72             72                   145 
      6900   0.40927155     0.41213359     0.40644898     0              58.935103      0              0              72             72                   145 
      7000   0.40988658     0.41275292     0.40705977     0              59.023667      0              0              72             72                   145 
      7100   0.41005727     0.4129248      0.40722929     0              59.048246      0              0              72             72                   145 
      7200   0.40916847     0.41202979     0.40634662     0              58.92026       0              0              72             72                   145 
      7300   0.40686482     0.40971003     0.40405886     0              58.588534      0              0              72             72                   145 
      7400   0.40331803     0.40613843     0.40053652     0              58.077796      0              0              72             72                   145 
      7500   0.39962063     0.40241518     0.39686462     0              57.54537       0              0              72             72                   145 
      7600   0.39774288     0.4005243      0.39499982     0              57.274975      0              0              72             72                   145 
      7700   0.40002706     0.40282445     0.39726825     0              57.603897      0              0              72             72                   145 
      7800   0.40744823     0.41029752     0.40463824     0              58.672545      0              0              72             72                   145 
      7900   0.41811578     0.42103966     0.41523222     0              60.208672      0              0              72             72                   145 
      8000   0.42870383     0.43170176     0.42574725     0              61.733351      0              0              72             72                   145 
      8100   0.43680302     0.43985759     0.43379058     0              62.899635      0              0              72             72                   145 
      8200   0.44159703     0.44468512     0.43855154     0              63.589973      0              0              72             72                   145 
      8300   0.4431866      0.44628581     0.44013014     0              63.818871      0              0              72             72                   145 
      8400   0.44194836     0.44503891     0.43890044     0              63.640564      0              0              72             72                   145 
      8500   0.43828827     0.44135322     0.43526559     0              63.113511      0              0              72             72                   145 
      8600   0.43324857     0.43627828     0.43026065     0              62.387795      0              0              72             72                   145 
      8700   0.42735523     0.43034373     0.42440795     0              61.539153      0              0              72             72                   145 
      8800   0.420876       0.42381919     0.41797341     0              60.606144      0              0              72             72                   145 
      8900   0.41419849     0.41709498     0.41134195     0              59.644582      0              0              72             72                   145 
      9000   0.40744127     0.41029051     0.40463133     0              58.671542      0              0              72             72                   145 
      9100   0.40263936     0.40545502     0.39986254     0              57.980069      0              0              72             72                   145 
      9200   0.40128735     0.40409356     0.39851986     0              57.785379      0              0              72             72                   145 
      9300   0.4031263      0.40594537     0.40034612     0              58.050188      0              0              72             72                   145 
      9400   0.40619395     0.40903447     0.40339261     0              58.491929      0              0              72             72                   145 
      9500   0.40847188     0.41132833     0.40565483     0              58.819951      0              0              72             72                   145 
      9600   0.40924625     0.41210812     0.40642387     0              58.931461      0              0              72             72                   145 
      9700   0.40899772     0.41185784     0.40617704     0              58.895671      0              0              72             72                   145 
      9800   0.40879585     0.41165457     0.40597657     0              58.866603      0              0              72             72                   145 
      9900   0.40965566     0.41252039     0.40683045     0              58.990415      0              0              72             72                   145 
     10000   0.4117604      0.41463984     0.40892067     0              59.293497      0              0              72             72                   145 
     10100   0.41486081     0.41776193     0.4119997      0              59.739957      0              0              72             72                   145 
     10200   0.41814301     0.42106709     0.41525926     0              60.212593      0              0              72             72                   145 
     10300   0.42059306     0.42353427     0.41769242     0              60.565401      0              0              72             72                   145 
     10400   0.42161048     0.4245588      0.41870282     0              60.711909      0              0              72             72                   145 
     10500   0.41904724     0.42197764     0.41615725     0              60.342802      0              0              72             72                   145 
     10600   0.41521481     0.41811842     0.41235126     0              59.790933      0              0              72             72                   145 
     10700   0.41195748     0.4148383      0.40911639     0              59.321877      0              0              72             72                   145 
     10800   0.40963461     0.41249918     0.40680954     0              58.987383      0              0              72             72                   145 
     10900   0.4077952      0.41064691     0.40498282     0              58.722509      0              0              72             72                   145 
     11000   0.40605217     0.40889169     0.40325181     0              58.471512      0              0              72             72                   145 
     11100   0.40403716     0.4068626      0.4012507      0              58.181351      0              0              72             72                   145 
     11200   0.40166419     0.40447303     0.39889409     0              57.839644      0              0              72             72                   145 
     11300   0.39882952     0.40161854     0.39607898     0              57.431452      0              0              72             72                   145 
     11400   0.39613485     0.39890502     0.39340288     0              57.043418      0              0              72             72                   145 
     11500   0.39426126     0.39701833     0.39154222     0              56.773622      0              0              72             72                   145 
     11600   0.39288002     0.39562743     0.3901705      0              56.574722      0              0              72             72                   145 
     11700   0.39193576     0.39467657     0.38923276     0              56.43875       0              0              72             72                   145 
     11800   0.39201987     0.39476127     0.38931629     0              56.450861      0              0              72             72                   145 
     11900   0.39397947     0.39673457     0.39126237     0              56.733044      0              0              72             72                   145 
     12000   0.39787554     0.40065788     0.39513157     0              57.294077      0              0              72             72                   145 
     12100   0.40227188     0.40508497     0.3994976      0              57.927151      0              0              72             72                   145 
     12200   0.40507081     0.40790347     0.40227722     0              58.330197      0              0              72             72                   145 
     12300   0.40498851     0.40782059     0.40219548     0              58.318345      0              0              71             73                   145 
     12400   0.40242361     0.40523776     0.39964827     0              57.948999      0              0              71             73                   145 
     12500   0.39952829     0.40232219     0.39677292     0              57.532073      0              0              71             73                   145 
     12600   0.39869592     0.401484       0.39594629     0              57.412212      0              0              71             73                   145 
     12700   0.40072803     0.40353032     0.39796438     0              57.704836      0              0              71             73                   145 
     12800   0.40459118     0.40742049     0.4018009      0              58.26113       0              0              71             73                   145 
     12900   0.40880095     0.4116597      0.40598164     0              58.867337      0              0              72             72                   145 
     13000   0.41294982     0.41583759     0.41010189     0              59.464775      0              0              72             72                   145 
     13100   0.41640222     0.41931412     0.41353048     0              59.961919      0              0              72             72                   145 
     13200   0.41942083     0.42235384     0.41652827     0              60.3966        0              0              73             71                   145 
     13300   0.42163743     0.42458594     0.41872958     0              60.715789      0              0              73             71                   145 
     13400   0.42268554     0.42564138     0.41977047     0              60.866718      0              0              73             71                   145 
     13500   0.42233132     0.42528469     0.41941869     0              60.815711      0              0              73             71                   145 
     13600   0.42063627     0.42357779     0.41773533     0              60.571624      0              0              73             71                   145 
     13700   0.41804643     0.42096984     0.41516336     0              60.198687      0              0              73             71                   145 
     13800   0.41543223     0.41833735     0.41256718     0              59.822241      0              0              73             71                   145 
     13900   0.41356791     0.41646        0.41071572     0              59.553779      0              0              73             71                   145 
     14000   0.41264225     0.41552786     0.40979644     0              59.420484      0              0              73             71                   145 
     14100   0.41239694     0.41528083     0.40955282     0              59.385159      0              0              73             71                   145 
     14200   0.41234357     0.41522709     0.40949982     0              59.377473      0              0              73             71                   145 
     14300   0.41222979     0.41511252     0.40938683     0              59.36109       0              0              73             71                   145 
     14400   0.41191526     0.41479579     0.40907447     0              59.315798      0              0              72             72                   145 
     14500   0.4112132      0.41408882     0.40837725     0              59.214701      0              0              72             72                   145 
     14600   0.41005848     0.41292602     0.40723049     0              59.048421      0              0              72             72                   145 
     14700   0.40849891     0.41135555     0.40568168     0              58.823843      0              0              72             72                   145 
     14800   0.40661578     0.40945925     0.40381154     0              58.552673      0              0              72             72                   145 
     14900   0.40422218     0.40704891     0.40143444     0              58.207994      0              0              72             72                   145 
     15000   0.40130263     0.40410894     0.39853503     0              57.787579      0              0              72             72                   145 
     15100   0.39745887     0.4002383      0.39471778     0              57.234077      0              0              72             72                   145 
     15200   0.39288228     0.3956297      0.39017274     0              56.575048      0              0              72             72                   145 
     15300   0.38755539     0.39026557     0.3848826      0              55.807976      0              0              72             72                   145 
     15400   0.38146116     0.38412873     0.3788304      0              54.930408      0              0              72             72                   145 
     15500   0.37461561     0.3772353      0.37203205     0              53.944648      0              0              72             72                   145 
     15600   0.36737634     0.3699454      0.36484271     0              52.902193      0              0              72             72                   145 
     15700   0.36064635     0.36316835     0.35815913     0              51.933074      0              0              72             72                   145 
     15800   0.35591942     0.35840837     0.3534648      0              51.252397      0              0              72             72                   145 
     15900   0.35496659     0.35744888     0.35251855     0              51.115189      0              0              72             72                   145 
     16000   0.35923482     0.36174695     0.35675734     0              51.729814      0              0              72             72                   145 
     16100   0.36907645     0.3716574      0.36653109     0              53.147009      0              0              72             72                   145 
     16200   0.38298932     0.38566757     0.38034801     0              55.150462      0              0              72             72                   145 
     16300   0.39841503     0.40120115     0.39566734     0              57.371765      0              0              72             72                   145 
     16400   0.41247035     0.41535476     0.40962573     0              59.395731      0              0              72             72                   145 
     16500   0.42325858     0.42621843     0.42033955     0              60.949235      0              0              72             72                   145 
     16600   0.43015772     0.43316582     0.42719112     0              61.942712      0              0              72             72                   145 
     16700   0.43348908     0.43652047     0.4304995      0              62.422427      0              0              72             72                   145 
     16800   0.433918       0.4369524      0.43092547     0              62.484193      0              0              72             72                   145 
     16900   0.43231922     0.43534243     0.42933771     0              62.253967      0              0              72             72                   145 
     17000   0.42945483     0.43245801     0.42649307     0              61.841495      0              0              72             72                   145 
     17100   0.42587867     0.42885684     0.42294157     0              61.326528      0              0              72             72                   145 
     17200   0.42218573     0.42513808     0.41927411     0              60.794746      0              0              72             72                   145 
     17300   0.4187316      0.4216598      0.4158438      0              60.297351      0              0              72             72                   145 
     17400   0.41569959     0.41860658     0.4128327      0              59.860741      0              0              72             72                   145 
     17500   0.4131386      0.41602768     0.41028937     0              59.491959      0              0              72             72                   145 
     17600   0.41102376     0.41389805     0.40818911     0              59.187421      0              0              73             71                   145 
     17700   0.40942038     0.41228346     0.4065968      0              58.956535      0              0              73             71                   145 
     17800   0.40840562     0.41126161     0.40558903     0              58.81041       0              0              73             71                   145 
     17900   0.40784016     0.41069219     0.40502747     0              58.728983      0              0              73             71                   145 
     18000   0.40753014     0.41038        0.40471959     0              58.68434       0              0              73             71                   145 
     18100   0.40758194     0.41043216     0.40477103     0              58.6918        0              0              73             71                   145 
     18200   0.40857039     0.41142753     0.40575267     0              58.834137      0              0              73             71                   145 
     18300   0.41110732     0.41398219     0.40827209     0              59.199454      0              0              73             71                   145 
     18400   0.4154112      0.41831618     0.4125463      0              59.819213      0              0              73             71                   145 
     18500   0.42107047     0.42401502     0.41816653     0              60.634148      0              0              73             71                   145 
     18600   0.42725934     0.43024717     0.42431273     0              61.525346      0              0              73             71                   145 
     18700   0.43308482     0.43611338     0.43009803     0              62.364214      0              0              73             71                   145 
     18800   0.43804551     0.44110876     0.4350245      0              63.078553      0              0              73             71                   145 
     18900   0.44167275     0.44476137     0.43862673     0              63.600876      0              0              72             72                   145 
     19000   0.44370691     0.44680975     0.44064686     0              63.893795      0              0              72             72                   145 
     19100   0.4439896      0.44709442     0.4409276      0              63.934502      0              0              72             72                   145 
     19200   0.4423649      0.44545836     0.4393141      0              63.700545      0              0              72             72                   145 
     19300   0.43885972     0.44192867     0.4358331      0              63.1958        0              0              72             72                   145 
     19400   0.43407136     0.43710683     0.43107777     0              62.506277      0              0              72             72                   145 
     19500   0.42940258     0.43240539     0.42644118     0              61.833971      0              0              72             72                   145 
     19600   0.42661466     0.42959797     0.42367249     0              61.43251       0              0              72             72                   145 
     19700   0.42654401     0.42952683     0.42360232     0              61.422337      0              0              72             72                   145 
     19800   0.42790077     0.43089309     0.42494973     0              61.617711      0              0              72             72                   145 
     19900   0.42851658     0.4315132      0.42556129     0              61.706387      0              0              72             72                   145 
     20000   0.42676263     0.42974699     0.42381944     0              61.453819      0              0              72             72                   145 
Loop time of 0.0653428 on 1 procs for 20000 steps with 145 atoms

Performance: 2644515.139 tau/day, 306078.141 timesteps/s, 44.381 Matom-step/s
96.6% CPU use with 1 MPI tasks x no OpenMP threads

MPI task timing breakdown:
Section |  min time  |  avg time  |  max time  |%varavg| %total
---------------------------------------------------------------
Pair    | 0.019553   | 0.019553   | 0.019553   |   0.0 | 29.92
Neigh   | 0.00026912 | 0.00026912 | 0.00026912 |   0.0 |  0.41
Comm    | 0.00096495 | 0.00096495 | 0.00096495 |   0.0 |  1.48
Output  | 0.002975   | 0.002975   | 0.002975   |   0.0 |  4.55
Modify  | 0.036906   | 0.036906   | 0.036906   |   0.0 | 56.48
Other   |            | 0.004675   |            |       |  7.16

Nlocal:            145 ave         145 max         145 min
Histogram: 1 0 0 0 0 0 0 0 0 0
Nghost:              0 ave           0 max           0 min
Histogram: 1 0 0 0 0 0 0 0 0 0
Neighs:            244 ave         244 max         244 min
Histogram: 1 0 0 0 0 0 0 0 0 0

Total # of neighbors = 244
Ave neighs/atom = 1.6827586
Neighbor list builds = 33
Dangerous builds = 0
unfix           hold_wall

print           "Phase 2: Measuring oscillations..."
Phase 2: Measuring oscillations...
run             ${run_steps}
run             200000
Generated 0 of 1 mixed pair_coeff terms from geometric mixing rule
Per MPI rank memory allocation (min/avg/max) = 4.045 | 4.045 | 4.045 Mbytes
   Step          Temp         c_temp_p        c_ke_p         c_ke_w       v_ke_total      v_wall_x      v_wall_vx       v_n_left      v_n_right       Atoms   
     20000   0.42676263     0.42974699     0.42381944     0              61.453819      0              0              72             72                   145 
     20100   0.42287084     0.42582792     0.41995443     6.0025232e-08  60.893401     -4.6903097e-06 -0.00093293401  72             72                   145 
     20200   0.41909495     0.42202545     0.41620441     2.3114149e-07  60.349672     -1.8541416e-05 -0.0018307244   72             72                   145 
     20300   0.41806186     0.42098486     0.41517818     4.9733028e-07  60.200908     -4.1160893e-05 -0.0026853844   72             72                   145 
     20400   0.41988359     0.42281899     0.416987       8.4013629e-07  60.463238     -7.208304e-05  -0.0034902688   72             72                   145 
     20500   0.42163744     0.42458469     0.41872835     1.2399347e-06  60.715791     -0.00011078285 -0.0042401714   72             72                   145 
     20600   0.4200286      0.42296416     0.41713017     1.6771138e-06  60.484118     -0.00015669056 -0.0049313437   72             72                   145 
     20700   0.4134151      0.41630395     0.41056183     2.1330803e-06  59.531774     -0.00020920603 -0.0055614444   71             73                   145 
     20800   0.40187429     0.40468198     0.39910016     2.5910312e-06  57.869898     -0.0002677123  -0.0061294333   71             73                   145 
     20900   0.38727508     0.38998022     0.38460118     3.0364731e-06  55.767612     -0.00033158795 -0.0066354246   71             73                   145 
     21000   0.37349942     0.37610779     0.3709201      3.4574982e-06  53.783916     -0.00040021773 -0.0070805172   71             73                   145 
     21100   0.36578973     0.3683438      0.3632632      3.8448504e-06  52.673721     -0.00047300159 -0.0074666144   71             73                   145 
     21200   0.36689304     0.36945447     0.36435855     4.1918252e-06  52.832597     -0.00054936177 -0.0077962469   71             73                   145 
     21300   0.37418527     0.37679739     0.37160019     4.4940438e-06  53.882679     -0.00062874825 -0.0080723996   72             72                   145 
     21400   0.38322218     0.38589724     0.38057452     4.7491503e-06  55.183995     -0.00071064244 -0.008298354    72             72                   145 
     21500   0.39222579     0.3949636      0.38951582     4.9564818e-06  56.480513     -0.0007945595  -0.0084775578   72             72                   145 
     21600   0.40069459     0.40349149     0.39792609     5.09013e-06    57.700021     -0.00088000218 -0.0085910934   72             72                   145 
     21700   0.4076103      0.4104556      0.40479415     5.0455946e-06  58.695883     -0.00096586321 -0.0085534275   72             72                   145 
     21800   0.41161429     0.41448785     0.40877077     4.7981017e-06  59.272458     -0.0010504884  -0.0083410116   72             72                   145 
     21900   0.41225256     0.41513104     0.40940509     4.3431916e-06  59.364368     -0.0011320408  -0.0079357595   72             72                   145 
     22000   0.41113427     0.41400558     0.40829516     3.699678e-06   59.203335     -0.0012085095  -0.0073242973   72             72                   145 
     22100   0.41089493     0.41376536     0.40805825     2.9209714e-06  59.16887      -0.0012778482  -0.0065080016   72             72                   145 
     22200   0.4124196      0.41530156     0.40957327     2.0636712e-06  59.388423     -0.0013379309  -0.0054702131   72             72                   145 
     22300   0.41424525     0.41714083     0.41138717     1.2143162e-06  59.651315     -0.0013864643  -0.0041961392   72             72                   145 
     22400   0.41444952     0.41734727     0.41159076     4.942361e-07   59.680731     -0.001421036   -0.0026770176   72             72                   145 
     22500   0.41202635     0.4149076      0.40918474     5.7364008e-08  59.331795     -0.0014391841  -0.0009120187   72             72                   145 
     22600   0.40705033     0.40989675     0.40424301     8.1973512e-08  58.615248     -0.0014384845   0.0010902366   72             72                   145 
     22700   0.40029771     0.40309623     0.39753628     7.5598151e-07  57.64287      -0.0014166504   0.0033108506   72             72                   145 
     22800   0.39277238     0.39551675     0.39006135     2.2570295e-06  56.559223     -0.0013716356   0.0057207454   72             72                   145 
     22900   0.38566427     0.38835642     0.38299978     4.7301868e-06  55.535654     -0.001301731    0.0082817697   72             72                   145 
     23000   0.38013321     0.3827831      0.37750333     8.2672175e-06  54.739182     -0.0012056466   0.010948728    72             72                   145 
     23100   0.37686061     0.37948293     0.37424868     1.2891453e-05  54.267928     -0.0010825683   0.013672091    72             72                   145 
     23200   0.37642776     0.37904131     0.37381316     1.8551294e-05  54.205597     -0.00093218639  0.016401029    72             72                   145 
     23300   0.3789432      0.38156768     0.37630468     2.512352e-05   54.567821     -0.00075469338  0.01908641     72             72                   145 
     23400   0.38350568     0.38615466     0.38082839     3.2425515e-05  55.224818     -0.0005507535   0.021683403    72             72                   145 
     23500   0.38872626     0.39140383     0.38600515     4.0233832e-05  55.976581     -0.00032144918  0.024153479    72             72                   145 
     23600   0.39354686     0.39624995     0.39078444     4.8305612e-05  56.670748     -6.8211073e-05  0.026465664    72             72                   145 
     23700   0.39756253     0.4002855      0.39476432     5.6399444e-05  57.249004      0.00020726065  0.028597062    72             72                   145 
     23800   0.40071244     0.40344944     0.39788462     6.4292856e-05  57.702592      0.00050307693  0.03053271     72             72                   145 
     23900   0.40302882     0.4057744      0.40017751     7.1794038e-05  58.036149      0.00081723554  0.032264742    72             72                   145 
     24000   0.40467241     0.40742244     0.40180282     7.8748201e-05  58.272827      0.0011476862   0.033791255    72             72                   145 
     24100   0.40590339     0.40865565     0.40301902     8.5040752e-05  58.450088      0.0014923857   0.035115394    72             72                   145 
     24200   0.40719686     0.40995253     0.40429801     9.0596815e-05  58.636348      0.0018493433   0.036244363    72             72                   145 
     24300   0.40875489     0.4115166      0.40584051     9.5377867e-05  58.860704      0.0022166564   0.037188427    72             72                   145 
     24400   0.41042042     0.41318973     0.40749056     9.9376534e-05  59.100541      0.0025925366   0.037959975    71             73                   145 
     24500   0.41170917     0.41448421     0.40876718     0.00010261054  59.28612       0.0029753265   0.038572695    71             73                   145 
     24600   0.41193662     0.41471071     0.40899056     0.00010511655  59.318873      0.0033635088   0.039040875    71             73                   145 
     24700   0.41067106     0.41343444     0.4077319      0.00010694445  59.136632      0.0037557101   0.039378858    71             73                   145 
     24800   0.40780751     0.41054965     0.40488689     0.0001081524   58.724282      0.0041506987   0.03960063     71             73                   145 
     24900   0.4040075      0.4067224      0.40111244     0.00010880345  58.17708       0.0045473802   0.039719643    71             73                   145 
     25000   0.40013        0.40281762     0.39726152     0.00010896899  57.61872       0.0049447933   0.039749847    71             73                   145 
     25100   0.39715721     0.39982404     0.39430923     0.00010896899  57.190638      0.0053422918   0.039749847    71             73                   145 
     25200   0.39600861     0.39866741     0.39316855     0.00010896899  57.02524       0.0057397903   0.039749847    71             73                   145 
     25300   0.39721247     0.39987968     0.3943641      0.00010896899  57.198595      0.0061372887   0.039749847    71             73                   145 
     25400   0.40055112     0.40324169     0.39767973     0.00010896899  57.679362      0.0065347872   0.039749847    71             73                   145 
     25500   0.40473442     0.40745423     0.40183417     0.00010896899  58.281756      0.0069322857   0.039749847    71             73                   145 
     25600   0.40783148     0.41057296     0.40490988     0.00010896899  58.727734      0.0073297841   0.039749847    71             73                   145 
     25700   0.40845029     0.4111961      0.40552443     0.00010896899  58.816842      0.0077272826   0.039749847    71             73                   145 
     25800   0.40654191     0.40927437     0.40362921     0.00010896899  58.542035      0.0081247811   0.039749847    71             73                   145 
     25900   0.40290804     0.40561508     0.40002039     0.00010896899  58.018757      0.0085222796   0.039749847    71             73                   145 
     26000   0.39815808     0.4008319      0.39530319     0.00010896899  57.334763      0.008919778    0.039749847    71             73                   145 
     26100   0.39290333     0.39554041     0.39008468     0.00010896899  56.578079      0.0093172765   0.039749847    71             73                   145 
     26200   0.38785809     0.39045989     0.38507423     0.00010896899  55.851564      0.009714775    0.039749847    71             73                   145 
     26300   0.38344955     0.38602053     0.38069611     0.00010896899  55.216736      0.010112273    0.039749847    71             73                   145 
     26400   0.38013773     0.38268554     0.37740712     0.00010896899  54.739833      0.010509772    0.039749847    71             73                   145 
     26500   0.37807033     0.38060366     0.37535395     0.00010899346  54.442127      0.010907275    0.03975431     71             73                   145 
     26600   0.37671368     0.37923706     0.3740062      0.00010945729  54.24677       0.011305146    0.039838808    71             73                   145 
     26700   0.37568839     0.37820341     0.37298681     0.00011062553  54.099128      0.011704476    0.040050844    71             73                   145 
     26800   0.37481139     0.37731819     0.3721138      0.00011268109  53.972839      0.01210669     0.04042123     71             73                   145 
     26900   0.37381849     0.37631513     0.37112458     0.00011585476  53.829863      0.012513549    0.040986511    71             73                   145 
     27000   0.37391631     0.37640898     0.37121713     0.00012044193  53.843948      0.012927213    0.041790047    71             73                   145 
     27100   0.37570956     0.3782083      0.37299164     0.00012682043  54.102176      0.013350312    0.042882353    71             73                   145 
     27200   0.37909573     0.38160938     0.37634581     0.00013546909  54.589785      0.013786012    0.044320444    71             73                   145 
     27300   0.38343341     0.38596572     0.38064206     0.00014698611  55.214411      0.014238078    0.04616599     71             73                   145 
     27400   0.38783376     0.39038151     0.38499694     0.00016210254  55.848061      0.0147109      0.048481819    71             73                   145 
     27500   0.39187109     0.39442722     0.38898684     0.00018168326  56.429436      0.015209479    0.051326477    71             73                   145 
     27600   0.39562101     0.39817799     0.39268588     0.00020670352  56.969425      0.01573935     0.054746699    71             73                   145 
     27700   0.39900485     0.40155358     0.39601491     0.0002381859   57.456698      0.01630642     0.058768151    71             73                   145 
     27800   0.40162784     0.40415547     0.39858091     0.00027708072  57.834408      0.016916703    0.063385097    71             73                   145 
     27900   0.40347147     0.40596433     0.40036483     0.00032408647  58.099892      0.017575957    0.068551104    71             73                   145 
     28000   0.40457648     0.40702095     0.40140687     0.00037943321  58.259013      0.018289252    0.074173996    71             73                   145 
     28100   0.40498253     0.40736571     0.40174687     0.00044267809  58.317484      0.01906051     0.080117615    71             73                   145 
     28200   0.40486015     0.40717158     0.40155542     0.00051259088  58.299862      0.01989211     0.086212341    71             73                   145 
     28300   0.40428168     0.40651342     0.40090634     0.0005871941   58.216562      0.020784643    0.092273043    71             73                   145 
     28400   0.40343709     0.40558507     0.3999908      0.00066396872  58.094941      0.021736856    0.098120061    71             73                   145 
     28500   0.40267        0.40473534     0.39915279     0.00074018415  57.984481      0.022745811    0.1035986      71             73                   145 
     28600   0.40237434     0.4043635      0.39878607     0.00081326703  57.941905      0.023807208    0.10859269     71             73                   145 
     28700   0.40266122     0.4045836      0.39900313     0.00088111081  57.983215      0.024915809    0.11303144     71             73                   145 
     28800   0.40373495     0.40560283     0.40000831     0.00094225925  58.137833      0.026065892    0.11688781     71             73                   145 
     28900   0.40601473     0.40784412     0.40221868     0.00099594759  58.466121      0.027251654    0.12017171     71             73                   145 
     29000   0.40942299     0.41122949     0.40555736     0.0010420283   58.956911      0.02846754     0.12292034     71             73                   145 
     29100   0.41371986     0.41551706     0.40978579     0.0010808293   59.57566       0.029708457    0.12518796     71             73                   145 
     29200   0.4185148      0.42031292     0.4145155      0.001112992    60.266132      0.030969904    0.12703694     71             73                   145 
     29300   0.4233776      0.42518303     0.41931843     0.0011393223   60.966375      0.032248013    0.12853082     71             73                   145 
     29400   0.42792718     0.42974277     0.42381528     0.0011606726   61.621514      0.033539537    0.12972953     71             73                   145 
     29500   0.4318963      0.43372222     0.42773984     0.0011778601   62.193067      0.034841799    0.13068654     71             73                   145 
     29600   0.43487866     0.43671149     0.43068789     0.0011916157   62.622528      0.036152615    0.13144743     71             73                   145 
     29700   0.43697866     0.43881508     0.43276246     0.0012025599   62.924928      0.037470219    0.13204968     70             74                   145 
     29800   0.43813992     0.43997569     0.43390706     0.0012112002   63.092148      0.038793181    0.13252321     70             74                   145 
     29900   0.43789369     0.43972091     0.43365579     0.0012179404   63.056691      0.040120333    0.13289145     70             74                   145 
     30000   0.4356352      0.43744142     0.43140774     0.0012230754   62.731469      0.041450718    0.13317129     70             74                   145 
     30100   0.43072686     0.43249602     0.42653056     0.0012257704   62.024668      0.042783302    0.13331793     70             74                   145 
     30200   0.42286456     0.42457919     0.41872292     0.0012253284   60.892496      0.044116509    0.13329389     70             74                   145 
     30300   0.41252555     0.41417179     0.40845907     0.0012214736   59.403679      0.045448561    0.13308406     70             74                   145 
     30400   0.40131124     0.40288679     0.39732974     0.0012138391   57.788818      0.046777502    0.13266751     70             74                   145 
     30500   0.39162923     0.39314899     0.38772624     0.0012020988   56.39461       0.048101147    0.13202436     70             74                   145 
     30600   0.38550636     0.38699936     0.38166144     0.0011862585   55.512916      0.049417231    0.13115163     70             74                   145 
     30700   0.38334412     0.38484279     0.37953461     0.0011657579   55.201554      0.050723295    0.13001342     70             74                   145 
     30800   0.38392263     0.38545149     0.38013492     0.0011399726   55.284859      0.052016474    0.1285675      70             74                   145 
     30900   0.38549931     0.38707126     0.38173235     0.0011083448   55.5119        0.053293478    0.12677145     70             74                   145 
     31000   0.38686924     0.38848918     0.38313071     0.0010704653   55.70917       0.054550605    0.1245863      71             73                   145 
     31100   0.38766194     0.38933234     0.38396224     0.0010261724   55.82332       0.055783804    0.12198155     71             73                   145 
     31200   0.38765795     0.38937954     0.38400879     0.00097565741  55.822745      0.056988783    0.1189413      71             73                   145 
     31300   0.38675786     0.38853005     0.38317101     0.00091955395  55.693132      0.058161193    0.11547092     71             73                   145 
     31400   0.38505044     0.38687211     0.38153594     0.0008589815   55.447264      0.059296873    0.11160301     70             74                   145 
     31500   0.38295631     0.38482768     0.37951971     0.00079551504  55.145708      0.060392136    0.10740097     70             74                   145 
     31600   0.38130578     0.38323097     0.37794502     0.00073106463  54.908033      0.061444088    0.10295842     70             74                   145 
     31700   0.38105606     0.38304377     0.37776041     0.0006676753   54.872073      0.062450895    0.098393556    70             74                   145 
     31800   0.38284025     0.38490168     0.37959269     0.00060728693  55.128996      0.063411991    0.093838481    70             74                   145 
     31900   0.38603232     0.38817263     0.38281852     0.00055151198  55.588655      0.06432814     0.089425521    70             74                   145 
     32000   0.39041916     0.39264086     0.38722513     0.00050148516  56.220359      0.065201374    0.085273295    70             74                   145 
     32100   0.39543527     0.39773633     0.39225032     0.00045781252  56.942679      0.066034792    0.08147565     70             74                   145 
     32200   0.40067324     0.40304865     0.39748936     0.00042061397  57.696946      0.066832282    0.078095471    70             74                   145 
     32300   0.4056635      0.40810523     0.4024762      0.00038962759  58.415544      0.067598199    0.075163822    70             74                   145 
     32400   0.40983682     0.41233338     0.40664602     0.00036433677  59.016502      0.068337065    0.072683445    71             73                   145 
     32500   0.41240682     0.41494188     0.40921854     0.00034408909  59.386581      0.069053309    0.070634919    71             73                   145 
     32600   0.41212713     0.41467636     0.40895669     0.00032818976  59.346307      0.069751088    0.068983705    71             73                   145 
     32700   0.4099934      0.4125401      0.4068499      0.00031596469  59.03905       0.070434164    0.06768669     71             73                   145 
     32800   0.40716816     0.4097044      0.40405331     0.00030679679  58.632215      0.071105848    0.066697477    71             73                   145 
     32900   0.40443874     0.40696264     0.40134936     0.00030014248  58.239178      0.071768986    0.06597019     71             73                   145 
     33000   0.40231361     0.40482733     0.3992435      0.00029553533  57.93316       0.072425981    0.065461915    71             73                   145 
     33100   0.40090566     0.40341252     0.39784821     0.00029258218  57.730415      0.073078825    0.065134028    71             73                   145 
     33200   0.4002864      0.40279058     0.39723485     0.0002909558   57.641242      0.07372915     0.064952745    71             73                   145 
     33300   0.40075836     0.40326642     0.39770412     0.00029038619  57.709204      0.074378272    0.064889134    71             73                   145 
     33400   0.40231969     0.40483868     0.3992547      0.00029037762  57.934036      0.075027154    0.064888177    71             73                   145 
     33500   0.40494261     0.40747994     0.40185952     0.00029037762  58.311735      0.075676036    0.064888177    71             73                   145 
     33600   0.40873071     0.41129453     0.4056215      0.00029037762  58.857223      0.076324918    0.064888177    71             73                   145 
     33700   0.41298821     0.4155818      0.40984964     0.00029037762  59.470302      0.076973799    0.064888177    71             73                   145 
     33800   0.4168812      0.41950202     0.41371578     0.00029037762  60.030893      0.077622681    0.064888177    71             73                   145 
     33900   0.41964142     0.42228153     0.41645696     0.00029037762  60.428364      0.078271563    0.064888177    71             73                   145 
     34000   0.4206104      0.42325729     0.41741926     0.00029037762  60.567898      0.078920445    0.064888177    71             73                   145 
     34100   0.41949422     0.4221333      0.41631078     0.00029037762  60.407167      0.079569326    0.064888177    71             73                   145 
     34200   0.41660485     0.41922373     0.41344134     0.00029037762  59.991099      0.080218208    0.064888177    71             73                   145 
     34300   0.41294917     0.41554249     0.40981087     0.00029037762  59.464681      0.08086709     0.064888177    71             73                   145 
     34400   0.40986707     0.41243884     0.40675002     0.00029037762  59.020858      0.081515972    0.064888177    71             73                   145 
     34500   0.40860219     0.4111651      0.40549386     0.00029037762  58.838715      0.082164853    0.064888177    71             73                   145 
     34600   0.40949121     0.41206034     0.40637675     0.00029037762  58.966734      0.082813735    0.064888177    71             73                   145 
     34700   0.41197521     0.41456172     0.40884363     0.00029037762  59.324431      0.083462617    0.064888177    71             73                   145 
     34800   0.41497538     0.41758287     0.4118231      0.00029037762  59.756455      0.084111499    0.064888177    71             73                   145 
     34900   0.41778235     0.42040946     0.41461071     0.00029037762  60.160658      0.084760381    0.064888177    71             73                   145 
     35000   0.42002753     0.42267034     0.41684041     0.00029037762  60.483964      0.085409262    0.064888177    71             73                   145 
     35100   0.42162117     0.42427513     0.41842306     0.00029037762  60.713448      0.086058144    0.064888177    71             73                   145 
     35200   0.42257205     0.42523266     0.41936738     0.00029037762  60.850375      0.086707026    0.064888177    71             73                   145 
     35300   0.42298844     0.42565196     0.4197809      0.00029037762  60.910336      0.087355908    0.064888177    71             73                   145 
     35400   0.42287105     0.42553375     0.41966432     0.00029037762  60.893431      0.088004789    0.064888177    71             73                   145 
     35500   0.42147532     0.42412826     0.41827821     0.00029037762  60.692445      0.088653671    0.064888177    71             73                   145 
     35600   0.41941024     0.42204874     0.41622738     0.00029037762  60.395074      0.089302553    0.064888177    71             73                   145 
     35700   0.41636756     0.41898478     0.41320568     0.00029037762  59.956929      0.089951435    0.064888177    71             73                   145 
     35800   0.41227597     0.41486458     0.40914231     0.00029037762  59.367739      0.090600316    0.064888177    71             73                   145 
     35900   0.40739486     0.40994933     0.40429486     0.00029037762  58.664859      0.091249198    0.064888177    71             73                   145 
     36000   0.40212156     0.40463916     0.39905793     0.00029037762  57.905504      0.09189808     0.064888177    71             73                   145 
     36100   0.39689524     0.39937629     0.39386765     0.00029037762  57.152914      0.092546962    0.064888177    71             73                   145 
     36200   0.39242266     0.39487244     0.38942592     0.00029037762  56.508863      0.093195844    0.064888177    71             73                   145 
     36300   0.39002963     0.39246267     0.38704939     0.00029037762  56.164267      0.093844725    0.064888177    71             73                   145 
     36400   0.39036785     0.39280326     0.38738528     0.00029037762  56.212971      0.094493607    0.064888177    71             73                   145 
     36500   0.39330004     0.39575595     0.39029725     0.00029037762  56.635206      0.095142489    0.064888177    71             73                   145 
     36600   0.39800065     0.40048943     0.39496544     0.00029037762  57.312093      0.095791371    0.064888177    71             73                   145 
     36700   0.40349171     0.40601889     0.40041863     0.00029037762  58.102806      0.096440252    0.064888177    71             73                   145 
     36800   0.40886443     0.41142918     0.4057543      0.00029037762  58.876478      0.097089134    0.064888177    71             73                   145 
     36900   0.41350896     0.41610619     0.4103668      0.00029037762  59.545291      0.097738016    0.064888177    71             73                   145 
     37000   0.41681413     0.41943448     0.41364918     0.00029037762  60.021235      0.098386898    0.064888177    71             73                   145 
     37100   0.41828627     0.42091691     0.41511116     0.00029037762  60.233223      0.099035779    0.064888177    71             73                   145 
     37200   0.41739633     0.42002074     0.41422735     0.00029037762  60.105071      0.099684661    0.064888177    71             73                   145 
     37300   0.41396819     0.41656863     0.41082286     0.00029037762  59.611419      0.10033354     0.064888177    71             73                   145 
     37400   0.40846863     0.41103062     0.40536123     0.00029037762  58.819483      0.10098242     0.064888177    71             73                   145 
     37500   0.4018962      0.40441223     0.39883413     0.00029037762  57.873053      0.10163131     0.064888177    71             73                   145 
     37600   0.39542633     0.39789711     0.39240888     0.00029037762  56.941392      0.10228019     0.064888177    71             73                   145 
     37700   0.38982015     0.39225172     0.38684135     0.00029037762  56.134101      0.10292907     0.064888177    71             73                   145 
     37800   0.38555538     0.38795713     0.382606       0.00029037762  55.519975      0.10357795     0.064888177    71             73                   145 
     37900   0.38298001     0.38536376     0.3800484      0.00029037762  55.149122      0.10422683     0.064888177    71             73                   145 
     38000   0.38264007     0.38502144     0.3797108      0.00029037762  55.100171      0.10487572     0.064888177    71             73                   145 
     38100   0.38510104     0.38749961     0.38215479     0.00029037762  55.454549      0.1055246      0.064888177    71             73                   145 
     38200   0.39036727     0.3928026      0.38738463     0.00029044851  56.212887      0.10617349     0.064896097    71             73                   145 
     38300   0.39761916     0.40010456     0.39458588     0.00029108838  57.25716       0.10682275     0.064967542    71             73                   145 
     38400   0.40467501     0.40720837     0.4015917      0.00029244645  58.273201      0.10747311     0.065118919    71             73                   145 
     38500   0.41120532     0.41378218     0.40807483     0.00029458861  59.213566      0.10812541     0.06535698     71             73                   145 
     38600   0.41662504     0.41923676     0.41345419     0.00029758137  59.994006      0.10878056     0.065688125    71             73                   145 
     38700   0.42060505     0.42324064     0.41740283     0.00030149008  60.567127      0.10943951     0.066118123    71             73                   145 
     38800   0.42197846     0.4246187      0.41876189     0.00030637651  60.764899      0.11010327     0.066651778    71             73                   145 
     38900   0.42213692     0.42477226     0.41891334     0.00031229585  60.787717      0.1107729      0.067292568    71             73                   145 
     39000   0.42140829     0.42403144     0.41818273     0.00031929321  60.682794      0.11144948     0.068042277    71             73                   145 
     39100   0.42035626     0.42296445     0.41713046     0.0003267871   60.531301      0.1121339      0.068836132    72             72                   145 
     39200   0.41965752     0.42225356     0.41642937     0.00033395188  60.430682      0.11282606     0.069586653    72             72                   145 
     39300   0.41927707     0.42186385     0.41604503     0.00034046829  60.375898      0.11352538     0.070262296    72             72                   145 
     39400   0.41948827     0.42207096     0.41624929     0.00034596023  60.406311      0.11423094     0.070826714    72             72                   145 
     39500   0.41986842     0.42244966     0.41662277     0.00035000442  60.461052      0.11494141     0.071239484    72             72                   145 
     39600   0.41975656     0.42233485     0.41650954     0.0003521494   60.444945      0.11565508     0.071457444    72             72                   145 
     39700   0.41862761     0.42119821     0.41538858     0.00035194512  60.282376      0.11636976     0.071436715    72             72                   145 
     39800   0.41629446     0.41885174     0.41307448     0.00034898281  59.946402      0.11708287     0.07113544     72             72                   145 
     39900   0.41415571     0.41670416     0.41095652     0.00034294305  59.638422      0.11779142     0.070517191    72             72                   145 
     40000   0.41319974     0.41575093     0.41001644     0.00033364736  59.500762      0.11849207     0.069554919    72             72                   145 
     40100   0.41376344     0.4163313      0.4105888      0.0003211065   59.581936      0.11918132     0.068235213    72             72                   145 
     40200   0.41474258     0.41733305     0.41157673     0.00030555201  59.722931      0.11985559     0.066562032    72             72                   145 
     40300   0.4148244      0.41743381     0.4116761      0.00028744109  59.734714      0.12051146     0.064559242    72             72                   145 
     40400   0.41314493     0.41576289     0.41002823     0.00026742921  59.49287       0.12114583     0.06227137     72             72                   145 
     40500   0.40918909     0.41180079     0.40612078     0.00024631034  58.923229      0.12175615     0.059762028    72             72                   145 
     40600   0.40331172     0.40590401     0.40030533     0.00022493355  58.076888      0.12234059     0.057109864    72             72                   145 
     40700   0.3964406      0.39900594     0.39350241     0.00020411176  57.087446      0.12289816     0.054402395    72             72                   145 
     40800   0.3895227      0.39205951     0.38665179     0.00018454122  56.091268      0.12342875     0.051728596    72             72                   145 
     40900   0.38420487     0.38672254     0.38138843     0.0001667471   55.325501      0.12393312     0.049171465    72             72                   145 
     41000   0.38212494     0.38464397     0.37933853     0.0001510625   55.025992      0.12441281     0.046801776    72             72                   145 
     41100   0.38368023     0.38622375     0.38089652     0.00013763858  55.249953      0.12486997     0.044673923    72             72                   145 
     41200   0.38830216     0.39088931     0.38549774     0.00012647631  55.915511      0.12530721     0.042824135    72             72                   145 
     41300   0.39446503     0.39710442     0.39162712     0.00011746895  56.802965      0.12572744     0.041271053    73             71                   145 
     41400   0.40056299     0.40325214     0.39769004     0.00011044494  57.681071      0.12613364     0.040018141    73             71                   145 
     41500   0.40513418     0.40786061     0.40223495     0.00010520383  58.339322      0.12652878     0.039057081    73             71                   145 
     41600   0.40611875     0.40885578     0.40321639     0.00010154283  58.4811        0.1269157      0.038371487    73             71                   145 
     41700   0.4036946      0.40641698     0.40081123     9.9274036e-05  58.132023      0.12729705     0.037940394    73             71                   145 
     41800   0.39888519     0.40157499     0.39603602     9.8234474e-05  57.439468      0.12767528     0.037741222    73             71                   145 
     41900   0.39277757     0.3954246      0.38997047     9.8290997e-05  56.55997       0.12805258     0.037752079    73             71                   145 
     42000   0.38636028     0.38896137     0.38359639     9.9342147e-05  55.635881      0.12843095     0.037953407    73             71                   145 
     42100   0.37867187     0.38121719     0.37595902     0.00010131837  54.528749      0.12881223     0.038329053    73             71                   145 
     42200   0.37310136     0.37560483     0.37042407     0.00010418152  53.726596      0.12919808     0.03886685     73             71                   145 
     42300   0.37033066     0.37281098     0.36766876     0.00010790248  53.327615      0.12959007     0.039554848    73             71                   145 
     42400   0.3698692      0.37234194     0.36720618     0.0001121892   53.261164      0.12998945     0.040332907    72             72                   145 
     42500   0.37106576     0.37354195     0.36838965     0.00011703928  53.43347       0.13039701     0.041195504    72             72                   145 
     42600   0.37365186     0.37614051     0.37095237     0.0001225857   53.805868      0.1308137      0.04216032     72             72                   145 
     42700   0.37702031     0.37952603     0.37429119     0.00012897634  54.290924      0.13124062     0.043245311    72             72                   145 
     42800   0.38046252     0.38298482     0.37770227     0.00013637325  54.786603      0.13167907     0.044468103    72             72                   145 
     42900   0.38425653     0.38679666     0.38146153     0.00014495036  55.33294       0.1321305      0.045845176    72             72                   145 
     43000   0.38772799     0.39028232     0.38489912     0.00015488911  55.832831      0.13259653     0.047390843    72             72                   145 
     43100   0.39152201     0.39409123     0.38865549     0.00016637147  56.37917       0.13307891     0.049116049    72             72                   145 
     43200   0.39601126     0.39859849     0.39310058     0.0001795696   57.025622      0.13357947     0.051027044    72             72                   145 
     43300   0.40143297     0.40404284     0.39846984     0.00019463213  57.806348      0.13410007     0.053124061    72             72                   145 
     43400   0.40763045     0.41026638     0.40460754     0.00021166718  58.698784      0.13464255     0.055400127    72             72                   145 
     43500   0.41409185     0.41675364     0.41100532     0.00023072359  59.629226      0.13520862     0.057840228    72             72                   145 
     43600   0.41967792     0.42235744     0.41653182     0.00025177219  60.433621      0.13579983     0.060420996    72             72                   145 
     43700   0.42396286     0.4266491      0.42076428     0.00027469037  61.050651      0.13641741     0.063111095    72             72                   145 
     43800   0.42645033     0.42912906     0.42321004     0.0002992532   61.408847      0.13706228     0.065872387    72             72                   145 
     43900   0.42680908     0.42946408     0.42354043     0.00032513774  61.460508      0.13773495     0.068662196    72             72                   145 
     44000   0.42596943     0.42859137     0.42267977     0.0003519407   61.339597      0.13843548     0.071436267    72             72                   145 
     44100   0.4242975      0.42688012     0.42099212     0.00037919944  61.098841      0.13916348     0.074151142    72             72                   145 
     44200   0.42226996     0.4248108      0.41895134     0.00040641825  60.806874      0.13991817     0.076766298    72             72                   145 
     44300   0.42028705     0.42278697     0.41695542     0.00043309849  60.521335      0.14069835     0.079245997    72             72                   145 
     44400   0.41911145     0.42157711     0.41576225     0.00045876843  60.352048      0.14150254     0.081560666    72             72                   145 
[...]
    208500   0.41426893     0.41687926     0.4111292      0.00028270308  59.654726      2.8803001      0.064024953    74             70                   145 
    208600   0.41203477     0.41462407     0.40890511     0.00028803889  59.333007      2.8809435      0.064626341    74             70                   145 
    208700   0.40945645     0.41202407     0.40634098     0.00029163251  58.961729      2.8815919      0.065028236    74             70                   145 
    208800   0.40676894     0.40931569     0.40366996     0.00029368576  58.574728      2.8822435      0.065256751    74             70                   145 
    208900   0.40416335     0.40669115     0.40108161     0.00029440211  58.199522      2.8828966      0.065336288    74             70                   145 
    209000   0.40160295     0.40411283     0.39853886     0.00029440787  57.830824      2.88355        0.065336928    74             70                   145 
    209100   0.39938077     0.40187511     0.39633201     0.00029440787  57.51083       2.8842033      0.065336928    74             70                   145 
    209200   0.39779518     0.40027844     0.39475735     0.00029440787  57.282505      2.8848567      0.065336928    74             70                   145 
    209300   0.39724167     0.39972106     0.39420766     0.00029440787  57.2028        2.8855101      0.065336928    74             70                   145 
    209400   0.39808854     0.40057385     0.39504869     0.00029440787  57.32475       2.8861634      0.065336928    74             70                   145 
    209500   0.40027538     0.40277598     0.39722045     0.00029440787  57.639654      2.8868168      0.065336928    74             70                   145 
    209600   0.40250508     0.40502128     0.39943478     0.00029440787  57.960732      2.8874702      0.065336928    74             70                   145 
    209700   0.40362262     0.40614663     0.40054461     0.00029440787  58.121657      2.8881235      0.065336928    74             70                   145 
    209800   0.40209503     0.40460835     0.39902755     0.00029440787  57.901684      2.8887769      0.065336928    74             70                   145 
    209900   0.39781991     0.40030334     0.39478191     0.00029440787  57.286067      2.8894303      0.065336928    74             70                   145 
    210000   0.39011723     0.3925468      0.38713236     0.00029440787  56.176881      2.8900836      0.065336928    74             70                   145 
    210100   0.38039424     0.38275582     0.37747643     0.00029440787  54.776771      2.890737       0.065336928    74             70                   145 
    210200   0.37033058     0.37262178     0.36748217     0.00029440787  53.327604      2.8913904      0.065336928    74             70                   145 
    210300   0.36173679     0.36396789     0.35894764     0.00029440787  52.090098      2.8920438      0.065336928    74             70                   145 
    210400   0.35734383     0.35954421     0.35458498     0.00029440787  51.457511      2.8926971      0.065336928    74             70                   145 
    210500   0.35829416     0.36050119     0.35552876     0.00029440787  51.59436       2.8933505      0.065336928    74             70                   145 
    210600   0.36377976     0.36602515     0.36097653     0.00029440787  52.384286      2.8940039      0.065336928    74             70                   145 
    210700   0.37089448     0.37318962     0.36804218     0.00029440787  53.408805      2.8946572      0.065336928    74             70                   145 
    210800   0.37806964     0.38041496     0.37516785     0.00029440787  54.442028      2.8953106      0.065336928    74             70                   145 
    210900   0.38379295     0.38617829     0.38085169     0.00029440787  55.266184      2.895964       0.065336928    74             70                   145 
    211000   0.38773598     0.39014889     0.38476753     0.00029440787  55.833981      2.8966173      0.065336928    73             71                   145 
    211100   0.39082476     0.39325928     0.38783501     0.00029440787  56.278766      2.8972707      0.065336928    73             71                   145 
    211200   0.39411086     0.39656835     0.39109844     0.00029440787  56.751964      2.8979241      0.065336928    73             71                   145 
    211300   0.39685883     0.39933554     0.39382746     0.00029440787  57.147671      2.8985774      0.065336928    73             71                   145 
    211400   0.39950789     0.40200312     0.39645825     0.00029440787  57.529136      2.8992308      0.065336928    72             72                   145 
    211500   0.40139293     0.40390135     0.3983303      0.00029440787  57.800582      2.8998842      0.065336928    72             72                   145 
    211600   0.40231282     0.40482767     0.39924384     0.00029440787  57.933046      2.9005376      0.065336928    72             72                   145 
    211700   0.40283239     0.40535087     0.39975983     0.00029440787  58.007864      2.9011909      0.065336928    72             72                   145 
    211800   0.40396518     0.40649159     0.40088481     0.00029440787  58.170986      2.9018443      0.065336928    72             72                   145 
    211900   0.4061105      0.4086519      0.40301533     0.00029440787  58.479911      2.9024977      0.065336928    72             72                   145 
    212000   0.40873299     0.41129274     0.40561973     0.00029440787  58.857551      2.903151       0.065336928    72             72                   145 
    212100   0.41062385     0.41319682     0.40749755     0.00029440787  59.129834      2.9038044      0.065336928    72             72                   145 
    212200   0.41048429     0.41305628     0.40735895     0.00029440787  59.109737      2.9044578      0.065336928    72             72                   145 
    212300   0.40737279     0.40992303     0.40426892     0.00029440787  58.661682      2.9051111      0.065336928    72             72                   145 
    212400   0.40155803     0.4040676      0.39849426     0.00029440787  57.824356      2.9057645      0.065336928    72             72                   145 
    212500   0.39474298     0.39720489     0.3917262      0.00029440787  56.842989      2.9064179      0.065336928    72             72                   145 
    212600   0.38962873     0.39205489     0.38664723     0.00029440787  56.106538      2.9070712      0.065336928    72             72                   145 
    212700   0.38770061     0.39011328     0.38473241     0.00029440787  55.828888      2.9077246      0.065336928    72             72                   145 
    212800   0.38817669     0.39059269     0.38520521     0.00029440787  55.897444      2.908378       0.065336928    72             72                   145 
    212900   0.38978081     0.39220803     0.38679826     0.00029440787  56.128437      2.9090314      0.065336928    72             72                   145 
    213000   0.3920874      0.39453074     0.38908894     0.00029440787  56.460585      2.9096847      0.065336928    72             72                   145 
    213100   0.39514442     0.39760914     0.39212488     0.00029440787  56.900797      2.9103381      0.065336928    72             72                   145 
    213200   0.39880708     0.40129742     0.39576228     0.00029440787  57.42822       2.9109915      0.065336928    72             72                   145 
    213300   0.40271767     0.40523535     0.3996459      0.00029440787  57.991345      2.9116448      0.065336928    72             72                   145 
    213400   0.40639347     0.40893686     0.40329635     0.00029440787  58.52066       2.9122982      0.065336928    72             72                   145 
    213500   0.40999545     0.41256402     0.40687348     0.00029440787  59.039344      2.9129516      0.065336928    72             72                   145 
    213600   0.41364484     0.41623894     0.41049771     0.00029440787  59.564858      2.9136049      0.065336928    72             72                   145 
    213700   0.41738832     0.42000859     0.41421537     0.00029440787  60.103918      2.9142583      0.065336928    72             72                   145 
    213800   0.42125459     0.42390191     0.41805498     0.00029440787  60.660662      2.9149117      0.065336928    72             72                   145 
    213900   0.42512267     0.42779703     0.42189638     0.00029440787  61.217665      2.915565       0.065336928    72             72                   145 
    214000   0.42860629     0.43130501     0.42535597     0.00029440787  61.719306      2.9162184      0.065336928    72             72                   145 
    214100   0.43124889     0.43396609     0.42798035     0.00029440787  62.09984       2.9168718      0.065336928    72             72                   145 
    214200   0.43241203     0.43513737     0.42913547     0.00029440787  62.267333      2.9175252      0.065336928    72             72                   145 
    214300   0.43124917     0.43396637     0.42798063     0.00029440787  62.09988       2.9181785      0.065336928    72             72                   145 
    214400   0.42714484     0.42983334     0.42390461     0.00029440787  61.508857      2.9188319      0.065336928    72             72                   145 
    214500   0.41994807     0.42258625     0.41675747     0.00029440787  60.472522      2.9194853      0.065336928    72             72                   145 
    214600   0.4104523      0.41302407     0.40732718     0.00029440787  59.105131      2.9201386      0.065336928    72             72                   145 
    214700   0.40000742     0.40250615     0.39695434     0.00029440787  57.601069      2.920792       0.065336928    72             72                   145 
    214800   0.39091423     0.39334937     0.38792386     0.00029440787  56.291649      2.9214454      0.065336928    72             72                   145 
    214900   0.38657845     0.38898327     0.38361799     0.00029440787  55.667297      2.9220987      0.065336928    72             72                   145 
    215000   0.38976386     0.39219095     0.38678142     0.00029440787  56.125995      2.9227521      0.065336928    72             72                   145 
    215100   0.39810622     0.40059165     0.39506625     0.00029440787  57.327296      2.9234055      0.065336928    72             72                   145 
    215200   0.40588823     0.40842809     0.40279459     0.00029440787  58.447905      2.9240588      0.065336928    72             72                   145 
    215300   0.40988331     0.4124511      0.40676212     0.00029440787  59.023197      2.9247122      0.065336928    72             72                   145 
    215400   0.41008875     0.41265798     0.40696615     0.00029440787  59.05278       2.9253656      0.065336928    72             72                   145 
    215500   0.40790676     0.41046073     0.4047992      0.00029440787  58.738573      2.926019       0.065336928    72             72                   145 
    215600   0.40485979     0.40739245     0.40177325     0.00029440787  58.29981       2.9266723      0.065336928    72             72                   145 
    215700   0.4020234      0.40453623     0.39895642     0.00029440787  57.891369      2.9273257      0.065336928    72             72                   145 
    215800   0.39986582     0.40236356     0.39681372     0.00029440787  57.580678      2.9279791      0.065336928    72             72                   145 
    215900   0.39840065     0.40088814     0.39535865     0.00029440787  57.369693      2.9286324      0.065336928    72             72                   145 
    216000   0.39757364     0.40005535     0.39453734     0.00029440787  57.250604      2.9292858      0.065336928    72             72                   145 
    216100   0.39738951     0.39986994     0.39435449     0.00029440787  57.22409       2.9299392      0.065336928    72             72                   145 
    216200   0.39818757     0.40067357     0.39514704     0.00029440787  57.33901       2.9305925      0.065336928    72             72                   145 
    216300   0.39934701     0.40184112     0.39629848     0.00029440787  57.505969      2.9312459      0.065336928    73             71                   145 
    216400   0.40030163     0.40280241     0.39724652     0.00029440787  57.643434      2.9318993      0.065336928    73             71                   145 
    216500   0.39929398     0.40178772     0.39624582     0.00029440787  57.498334      2.9325526      0.065336928    73             71                   145 
    216600   0.39585098     0.39832064     0.39282656     0.00029440787  57.002541      2.933206       0.065336928    73             71                   145 
    216700   0.39135825     0.3937965      0.38836482     0.00029440787  56.355588      2.9338594      0.065336928    73             71                   145 
    216800   0.38546774     0.3878648      0.38251494     0.00029440787  55.507355      2.9345128      0.065336928    73             71                   145 
    216900   0.38047115     0.38283326     0.3775528      0.00029440787  54.787846      2.9351661      0.065336928    73             71                   145 
    217000   0.37716767     0.37950668     0.3742721      0.00029440787  54.312144      2.9358195      0.065336928    73             71                   145 
    217100   0.37671226     0.37904808     0.37381983     0.00029440787  54.246565      2.9364729      0.065336928    73             71                   145 
    217200   0.37905212     0.38140431     0.37614356     0.00029440787  54.583506      2.9371262      0.065336928    73             71                   145 
    217300   0.38316955     0.38555053     0.38023259     0.00029440787  55.176415      2.9377796      0.065336928    73             71                   145 
    217400   0.38526402     0.38765964     0.38231261     0.00029440787  55.478018      2.938433       0.065336928    73             71                   145 
    217500   0.38551752     0.38791492     0.38256437     0.00029440787  55.514523      2.9390863      0.065336928    73             71                   145 
    217600   0.38446        0.38685        0.38151414     0.00029440787  55.36224       2.9397397      0.065336928    73             71                   145 
    217700   0.38337566     0.38575809     0.38043728     0.00029440787  55.206095      2.9403931      0.065336928    73             71                   145 
    217800   0.38347366     0.38585677     0.38053461     0.00029440787  55.220207      2.9410464      0.065336928    73             71                   145 
    217900   0.38539804     0.3877946      0.38244571     0.00029440787  55.497317      2.9416998      0.065336928    73             71                   145 
    218000   0.38901159     0.39143342     0.38603434     0.00029440787  56.017669      2.9423532      0.065336928    73             71                   145 
    218100   0.39358387     0.39603768     0.39057509     0.00029440787  56.676077      2.9430066      0.065336928    73             71                   145 
    218200   0.39824324     0.40072963     0.39520233     0.00029440787  57.347027      2.9436599      0.065336928    73             71                   145 
    218300   0.40228714     0.40480181     0.39921834     0.00029440787  57.929348      2.9443133      0.065336928    73             71                   145 
    218400   0.40537392     0.40791017     0.40228383     0.00029440787  58.373844      2.9449667      0.065336928    73             71                   145 
    218500   0.40759184     0.41014361     0.40448646     0.00029440787  58.693225      2.94562        0.065336928    73             71                   145 
    218600   0.40916281     0.41172602     0.40604704     0.00029396302  58.919445      2.9462733      0.065287547    73             71                   145 
    218700   0.4104201      0.412994       0.40729753     0.0002920832   59.100494      2.9469252      0.065078464    73             71                   145 
    218800   0.41148693     0.41407218     0.40836084     0.00028824877  59.254117      2.9475741      0.064649882    72             72                   145 
    218900   0.41201626     0.41461171     0.40889293     0.00028183714  59.330341      2.9482173      0.063926822    72             72                   145 
    219000   0.4117207      0.41432394     0.40860912     0.00027212566  59.287781      2.9488513      0.062815779    72             72                   145 
    219100   0.41006945     0.41267511     0.40698304     0.00025834145  59.05          2.9494719      0.061204175    72             72                   145 
    219200   0.40652307     0.40912276     0.40347969     0.00023977098  58.539322      2.9500733      0.058963372    72             72                   145 
    219300   0.4007082      0.40329138     0.39772875     0.00021595093  57.701981      2.9506486      0.055957918    72             72                   145 
    219400   0.39286683     0.39542459     0.38997046     0.00018694166  56.572823      2.9511895      0.052063942    72             72                   145 
    219500   0.38385515     0.38638367     0.38105424     0.0001536325   55.275141      2.9516867      0.047198212    72             72                   145 
    219600   0.37375152     0.37624557     0.37105597     0.00011794816  53.820218      2.9521302      0.041355149    72             72                   145 
    219700   0.36637444     0.36885258     0.36376496     8.2762771e-05  52.75792       2.9525109      0.034641885    72             72                   145 
    219800   0.363195       0.36568273     0.36063883     5.1379142e-05  52.300081      2.9528209      0.027294644    72             72                   145 
    219900   0.36371941     0.36623587     0.36118434     2.6656876e-05  52.375595      2.9530558      0.019660231    72             72                   145 
    220000   0.36629891     0.36885014     0.36376255     1.0163259e-05  52.747043      2.9532145      0.012139492    72             72                   145 
Loop time of 0.618266 on 1 procs for 200000 steps with 145 atoms

Performance: 2794914.456 tau/day, 323485.469 timesteps/s, 46.905 Matom-step/s
96.7% CPU use with 1 MPI tasks x no OpenMP threads

MPI task timing breakdown:
Section |  min time  |  avg time  |  max time  |%varavg| %total
---------------------------------------------------------------
Pair    | 0.18392    | 0.18392    | 0.18392    |   0.0 | 29.75
Neigh   | 0.0022794  | 0.0022794  | 0.0022794  |   0.0 |  0.37
Comm    | 0.0097385  | 0.0097385  | 0.0097385  |   0.0 |  1.58
Output  | 0.029198   | 0.029198   | 0.029198   |   0.0 |  4.72
Modify  | 0.34669    | 0.34669    | 0.34669    |   0.0 | 56.08
Other   |            | 0.04644    |            |       |  7.51

Nlocal:            145 ave         145 max         145 min
Histogram: 1 0 0 0 0 0 0 0 0 0
Nghost:              0 ave           0 max           0 min
Histogram: 1 0 0 0 0 0 0 0 0 0
Neighs:            245 ave         245 max         245 min
Histogram: 1 0 0 0 0 0 0 0 0 0

Total # of neighbors = 245
Ave neighs/atom = 1.6896552
Neighbor list builds = 270
Dangerous builds = 0

write_data      final_speed_of_sound.data
System init for write_data ...
Generated 0 of 1 mixed pair_coeff terms from geometric mixing rule
WARNING: Not all mixed pair coeffs generated from mixing. Use write_data with 'pair ij' option to store all pair coeffs. (src/write_data.cpp:364)
print           "Complete. Analyze wall_oscillation.dat for frequency."
Complete. Analyze wall_oscillation.dat for frequency.
Total wall time: 0:00:00
