ITEM: TIMESTEP
0
ITEM: NUMBER OF ATOMS
120
ITEM: BOX BOUNDS ff ff pp
-7.5000000000000000e+00 7.5000000000000000e+00
-5.0000000000000000e+00 5.0000000000000000e+00
-5.0000000000000000e-01 5.0000000000000000e-01
ITEM: ATOMS id mol type x y z vx vy vz
1 0 1 -6.8313 -3.9036 0 1.0885 0.494965 0
2 0 1 -5.8554 -3.9036 0 1.40981 0.416195 0
3 0 1 -4.8795 -3.9036 0 -1.03058 0.510259 0
4 0 1 -3.9036 -3.9036 0 -0.456787 0.738815 0
5 0 1 -2.9277 -3.9036 0 -1.89254 -1.18037 0
6 0 1 -1.9518 -3.9036 0 -0.711584 -1.08253 0
7 0 1 -0.9759 -3.9036 0 0.0537948 -1.30513 0
8 0 1 -6.8313 -2.9277 0 0.932317 0.136046 0
9 0 1 -5.8554 -2.9277 0 1.01241 -1.0992 0
10 0 1 -4.8795 -2.9277 0 -0.536073 -0.670358 0
11 0 1 -3.9036 -2.9277 0 -0.655067 -1.70469 0
12 0 1 -2.9277 -2.9277 0 -1.45471 -0.132652 0
13 0 1 -1.9518 -2.9277 0 0.338252 -0.676094 0
14 0 1 -0.9759 -2.9277 0 -0.496209 -0.790458 0
15 0 1 -6.8313 -1.9518 0 -0.114426 -0.385578 0
16 0 1 -5.8554 -1.9518 0 -0.166651 0.279052 0
17 0 1 -4.8795 -1.9518 0 -0.335093 -0.495006 0
18 0 1 -3.9036 -1.9518 0 1.15878 -2.37051 0
19 0 1 -2.9277 -1.9518 0 0.144554 -0.761969 0
20 0 1 -1.9518 -1.9518 0 0.383616 -1.02858 0
21 0 1 -0.9759 -1.9518 0 0.181698 0.211607 0
22 0 1 -6.8313 -0.9759 0 -0.657161 2.58236 0
23 0 1 -5.8554 -0.9759 0 -0.376577 0.101258 0
24 0 1 -4.8795 -0.9759 0 1.68213 1.45626 0
25 0 1 -3.9036 -0.9759 0 1.01525 -0.119373 0
26 0 1 -2.9277 -0.9759 0 -0.315881 -0.0952939 0
27 0 1 -1.9518 -0.9759 0 2.16068 -0.442663 0
28 0 1 -0.9759 -0.9759 0 0.28008 0.234636 0
29 0 1 -6.8313 0 0 -0.672828 -0.487247 0
30 0 1 -5.8554 0 0 -0.245738 -0.27183 0
31 0 1 -4.8795 0 0 1.25485 0.603108 0
32 0 1 -3.9036 0 0 -0.25148 1.8125 0
33 0 1 -2.9277 0 0 -1.00249 0.0467597 0
34 0 1 -1.9518 0 0 -1.58477 -0.202628 0
35 0 1 -0.9759 0 0 1.30748 0.714284 0
36 0 1 -6.8313 0.9759 0 0.902681 0.0362554 0
37 0 1 -5.8554 0.9759 0 -0.999347 -0.234893 0
38 0 1 -4.8795 0.9759 0 -1.29331 0.32988 0
39 0 1 -3.9036 0.9759 0 1.89796 -0.32411 0
40 0 1 -2.9277 0.9759 0 -0.91512 0.699307 0
41 0 1 -1.9518 0.9759 0 -0.240319 -0.293683 0
42 0 1 -0.9759 0.9759 0 -1.5797 -0.853713 0
43 0 1 -6.8313 1.9518 0 -0.257486 0.0248867 0
44 0 1 -5.8554 1.9518 0 -0.50462 -0.388686 0
45 0 1 -4.8795 1.9518 0 0.23375 -0.199047 0
46 0 1 -3.9036 1.9518 0 -0.837505 0.507041 0
47 0 1 -2.9277 1.9518 0 0.629105 1.6702 0
48 0 1 -1.9518 1.9518 0 -0.331125 0.0457013 0
49 0 1 -0.9759 1.9518 0 -0.507876 -0.981038 0
50 0 1 -6.8313 2.9277 0 -0.791403 0.416756 0
51 0 1 -5.8554 2.9277 0 -1.45413 -1.27779 0
52 0 1 -4.8795 2.9277 0 0.0674141 0.982952 0
53 0 1 -3.9036 2.9277 0 2.16633 3.34852 0
54 0 1 -2.9277 2.9277 0 -1.34735 1.30879 0
55 0 1 -1.9518 2.9277 0 0.19539 0.78466 0
56 0 1 -0.9759 2.9277 0 1.59395 -0.923933 0
57 0 1 -6.8313 3.9036 0 0.733904 -0.923688 0
58 0 1 -5.8554 3.9036 0 0.233931 -1.53377 0
59 0 1 -4.8795 3.9036 0 -1.23002 3.17487 0
60 0 1 -3.9036 3.9036 0 -0.685303 0.763833 0
61 0 1 -2.9277 3.9036 0 1.37712 -1.33101 0
62 0 1 -1.9518 3.9036 0 -2.10452 -0.603672 0
63 0 1 -0.9759 3.9036 0 0.13204 -0.971107 0
64 0 1 0.9759 -3.9036 0 -0.406914 -0.907502 0
65 0 1 1.9518 -3.9036 0 0.728656 1.21165 0
66 0 1 2.9277 -3.9036 0 -0.365798 0.399833 0
67 0 1 3.9036 -3.9036 0 0.921632 -0.950112 0
68 0 1 4.8795 -3.9036 0 -0.813657 -0.809615 0
69 0 1 5.8554 -3.9036 0 -0.455916 0.0133486 0
70 0 1 6.8313 -3.9036 0 1.38658 1.11495 0
71 0 1 0.9759 -2.9277 0 -0.291433 -0.447749 0
72 0 1 1.9518 -2.9277 0 -0.300957 0.408502 0
73 0 1 2.9277 -2.9277 0 1.96691 1.08181 0
74 0 1 3.9036 -2.9277 0 -0.715859 0.463738 0
75 0 1 4.8795 -2.9277 0 -0.791694 0.168408 0
76 0 1 5.8554 -2.9277 0 -0.685315 1.11976 0
77 0 1 6.8313 -2.9277 0 0.858621 -0.258233 0
78 0 1 0.9759 -1.9518 0 -0.144889 0.0647415 0
79 0 1 1.9518 -1.9518 0 -1.08029 -0.96674 0
80 0 1 2.9277 -1.9518 0 0.289779 1.30121 0
81 0 1 3.9036 -1.9518 0 1.0881 0.268693 0
82 0 1 4.8795 -1.9518 0 -1.38875 0.464126 0
83 0 1 5.8554 -1.9518 0 -1.46183 -0.275577 0
84 0 1 6.8313 -1.9518 0 -0.83335 -0.34511 0
85 0 1 0.9759 -0.9759 0 0.986317 -0.654268 0
86 0 1 1.9518 -0.9759 0 -0.352685 2.18346 0
87 0 1 2.9277 -0.9759 0 1.31714 0.199555 0
88 0 1 3.9036 -0.9759 0 -0.268888 -1.10356 0
89 0 1 4.8795 -0.9759 0 -1.6356 -1.29431 0
90 0 1 5.8554 -0.9759 0 0.125974 -0.00312375 0
91 0 1 6.8313 -0.9759 0 1.34306 0.322443 0
92 0 1 0.9759 0 0 1.5944 -1.49766 0
93 0 1 1.9518 0 0 1.16472 0.113023 0
94 0 1 2.9277 0 0 2.10231 -0.555425 0
95 0 1 3.9036 0 0 -0.021376 1.06288 0
96 0 1 4.8795 0 0 -0.743588 0.162168 0
97 0 1 5.8554 0 0 0.0748107 -0.95925 0
98 0 1 6.8313 0 0 0.955536 0.228117 0
99 0 1 0.9759 0.9759 0 0.0555732 0.544206 0
100 0 1 1.9518 0.9759 0 -0.733336 -0.157803 0
101 1 2 0 -4.63553 0 0 0 0
102 1 2 0 -4.14758 0 0 0 0
103 1 2 0 -3.65963 0 0 0 0
104 1 2 0 -3.17168 0 0 0 0
105 1 2 0 -2.68373 0 0 0 0
106 1 2 0 -2.19578 0 0 0 0
107 1 2 0 -1.70783 0 0 0 0
108 1 2 0 -1.21988 0 0 0 0
109 1 2 0 -0.731925 0 0 0 0
110 1 2 0 -0.243975 0 0 0 0
111 1 2 0 0.243975 0 0 0 0
112 1 2 0 0.731925 0 0 0 0
113 1 2 0 1.21988 0 0 0 0
114 1 2 0 1.70783 0 0 0 0
115 1 2 0 2.19578 0 0 0 0
116 1 2 0 2.68373 0 0 0 0
117 1 2 0 3.17168 0 0 0 0
118 1 2 0 3.65963 0 0 0 0
119 1 2 0 4.14758 0 0 0 0
120 1 2 0 4.63553 0 0 0 0
ITEM: TIMESTEP
10000
ITEM: NUMBER OF ATOMS
120
ITEM: BOX BOUNDS ff ff pp
-7.5000000000000000e+00 7.5000000000000000e+00
-5.0000000000000000e+00 5.0000000000000000e+00
-5.0000000000000000e-01 5.0000000000000000e-01
ITEM: ATOMS id mol type x y z vx vy vz
1 0 1 -7.49927 -4.24592 0 -2.13194 -0.858067 0
2 0 1 -6.35941 -4.80806 0 -1.65326 -2.2569 0
3 0 1 -4.99486 -4.30333 0 -1.39978 -0.664768 0
4 0 1 -4.16967 -4.69729 0 -0.164735 1.8384 0
5 0 1 -3.09792 -4.76637 0 -0.656348 -1.68496 0
6 0 1 -1.99854 -4.84936 0 -0.0711627 -2.17338 0
7 0 1 -0.937393 -4.86368 0 -1.00029 -2.31433 0
8 0 1 -7.4367 -3.15658 0 -1.96253 -1.27969 0
9 0 1 -6.23796 -3.44959 0 -1.22276 -2.09435 0
10 0 1 -4.9497 -2.94682 0 0.056242 -0.414978 0
11 0 1 -4.13601 -3.83885 0 -0.258662 -0.829118 0
12 0 1 -3.0624 -3.27768 0 -0.230004 -0.517196 0
13 0 1 -2.01395 -3.79851 0 -0.387275 -2.6328 0
14 0 1 -1.00266 -3.29891 0 0.400169 -1.01713 0
15 0 1 -7.43157 -2.0083 0 -1.38725 -0.46602 0
16 0 1 -6.15701 -2.39224 0 -0.888733 -1.69931 0
17 0 1 -5.00277 -1.88856 0 -1.02201 0.0450919 0
18 0 1 -3.95986 -2.26251 0 -0.570034 -1.28386 0
19 0 1 -2.905 -2.03561 0 -0.503564 -0.361006 0
20 0 1 -2.06217 -2.7486 0 -1.0362 -2.56681 0
21 0 1 -1.08694 -2.28808 0 -0.78518 -0.736233 0
22 0 1 -7.47371 -1.00457 0 -1.32208 -0.439501 0
23 0 1 -5.82481 -1.28153 0 0.0545756 -0.676524 0
24 0 1 -4.93308 -0.745608 0 -1.12332 0.426901 0
25 0 1 -4.01722 -1.14805 0 -1.25072 -0.632677 0
26 0 1 -2.94268 -1.02769 0 -0.829893 -1.45536 0
27 0 1 -2.05997 -1.62306 0 -0.912505 -1.96242 0
28 0 1 -1.16898 -1.23126 0 -1.09606 -0.941857 0
29 0 1 -7.3838 0.115291 0 1.54943 0.0375426 0
30 0 1 -6.57576 -0.364027 0 -2.2797 -1.13806 0
31 0 1 -5.31163 0.258799 0 -1.23473 0.911611 0
32 0 1 -4.17817 -0.119792 0 -0.714069 0.377013 0
33 0 1 -3.22088 0.0305285 0 -0.895438 0.181594 0
34 0 1 -1.99736 -0.341167 0 0.968344 -0.381126 0
35 0 1 -0.979364 -0.193968 0 -0.465795 -0.432957 0
36 0 1 -7.4808 1.13745 0 1.59876 1.01718 0
37 0 1 -6.26782 0.708961 0 -1.18574 -0.46454 0
38 0 1 -5.33669 1.36497 0 -0.720516 0.217629 0
39 0 1 -4.17402 1.6274 0 -1.0545 1.77405 0
40 0 1 -3.14316 1.12748 0 0.0832563 1.17103 0
41 0 1 -2.14837 0.775483 0 -2.03103 -0.574949 0
42 0 1 -1.12424 0.83874 0 -0.406594 -0.0754603 0
43 0 1 -7.3191 2.35741 0 -0.95879 0.822356 0
44 0 1 -6.20436 1.86057 0 -1.67798 0.637766 0
45 0 1 -5.22162 2.4115 0 -1.30211 0.250598 0
46 0 1 -4.12309 2.70613 0 -0.468426 0.989872 0
47 0 1 -3.05288 2.39216 0 -0.641006 1.38837 0
48 0 1 -2.10111 1.92161 0 -1.07294 -0.117062 0
49 0 1 -1.05352 1.88827 0 0.168422 0.274085 0
50 0 1 -7.07324 3.51136 0 -1.2902 1.0584 0
51 0 1 -6.38555 2.88575 0 0.378599 -0.906749 0
52 0 1 -4.98775 3.52955 0 -0.287663 1.34347 0
53 0 1 -4.01505 3.63352 0 1.07711 -2.38641 0
54 0 1 -3.04865 3.54505 0 0.169536 1.23453 0
55 0 1 -2.10942 3.29858 0 -1.64453 1.40497 0
56 0 1 -1.11311 2.88728 0 -0.551279 0.12089 0
57 0 1 -7.08538 4.58219 0 -0.482802 3.45336 0
58 0 1 -6.31863 3.84194 0 -2.40262 -0.0913667 0
59 0 1 -5.30327 4.46572 0 -2.67745 -0.669087 0
60 0 1 -4.45461 4.53914 0 -0.442782 2.04837 0
61 0 1 -3.27268 4.60498 0 0.64284 1.66533 0
62 0 1 -2.16094 4.70651 0 -0.790889 2.01748 0
63 0 1 -1.21428 4.02326 0 -1.3874 1.19809 0
64 0 1 1.04411 -4.91839 0 0.497343 -2.84277 0
65 0 1 1.91034 -4.27244 0 0.219512 -1.21174 0
66 0 1 2.99048 -3.91224 0 -0.0127399 -0.555335 0
67 0 1 3.95868 -4.76493 0 0.0428818 -1.97594 0
68 0 1 5.11176 -4.65951 0 0.866429 -1.91876 0
69 0 1 6.3565 -4.29388 0 1.22906 -1.12379 0
70 0 1 7.31571 -4.3699 0 -1.50257 -1.26092 0
71 0 1 1.03351 -3.84791 0 0.245731 -2.28346 0
72 0 1 1.93869 -2.79738 0 0.647011 0.184119 0
73 0 1 2.94587 -2.81565 0 -0.471381 -0.098792 0
74 0 1 3.97723 -3.65097 0 1.24694 -1.93049 0
75 0 1 5.08581 -3.57014 0 0.418409 -1.46909 0
76 0 1 6.53603 -3.11978 0 1.73108 -0.553635 0
77 0 1 7.46399 -2.90314 0 -1.66455 0.0621863 0
78 0 1 0.955834 -2.66333 0 0.616672 -1.92695 0
79 0 1 1.84893 -1.68012 0 0.9069 -0.415778 0
80 0 1 2.80383 -1.58309 0 0.628255 1.01212 0
81 0 1 3.73812 -2.21409 0 0.483688 -0.307606 0
82 0 1 4.75745 -2.14859 0 0.00184948 -0.368875 0
83 0 1 5.76713 -2.10822 0 0.419995 -0.544085 0
84 0 1 7.05571 -1.73739 0 0.808818 -0.3211 0
85 0 1 0.997713 -1.20564 0 -0.256772 0.536547 0
86 0 1 1.90158 -0.419347 0 0.214763 1.40812 0
87 0 1 2.92072 -0.461266 0 0.299324 1.33981 0
88 0 1 4.13738 -0.615203 0 0.849717 1.01931 0
89 0 1 5.16933 -0.828738 0 0.906478 0.124863 0
90 0 1 6.39083 -0.664393 0 0.574301 0.97139 0
91 0 1 7.2764 -0.754721 0 -0.429439 1.41082 0
92 0 1 0.925203 0.161273 0 -0.135698 1.04117 0
93 0 1 2.17135 0.618547 0 0.36698 1.6067 0
94 0 1 3.28887 0.632017 0 0.550197 1.69167 0
95 0 1 4.49575 1.20812 0 1.46424 3.07562 0
96 0 1 5.33322 0.355586 0 1.27133 0.875594 0
97 0 1 6.54476 0.523917 0 -0.879037 1.43192 0
98 0 1 7.41037 0.577994 0 0.145786 1.47759 0
99 0 1 1.25192 1.36651 0 0.930065 0.770585 0
100 0 1 2.35197 2.0515 0 1.10388 2.78599 0
101 1 2 -1.66985e-05 -4.63553 0 -3.3397e-05 6.92959e-10 0
102 1 2 -1.24799e-05 -4.14758 0 -2.49598e-05 6.20016e-10 0
103 1 2 -8.26136e-06 -3.65963 0 -1.65227e-05 5.47073e-10 0
104 1 2 -4.04279e-06 -3.17168 0 -8.08558e-06 4.7413e-10 0
105 1 2 1.75773e-07 -2.68373 0 3.51547e-07 4.01187e-10 0
106 1 2 4.39434e-06 -2.19578 0 8.78868e-06 3.28244e-10 0
107 1 2 8.6129e-06 -1.70783 0 1.72258e-05 2.55301e-10 0
108 1 2 1.28315e-05 -1.21988 0 2.56629e-05 1.82358e-10 0
109 1 2 1.705e-05 -0.731925 0 3.41001e-05 1.09415e-10 0
110 1 2 2.12686e-05 -0.243975 0 4.25372e-05 3.64716e-11 0
111 1 2 2.54872e-05 0.243975 0 5.09743e-05 -3.64714e-11 0
112 1 2 2.97057e-05 0.731925 0 5.94114e-05 -1.09414e-10 0
113 1 2 3.39243e-05 1.21988 0 6.78486e-05 -1.82358e-10 0
114 1 2 3.81429e-05 1.70783 0 7.62857e-05 -2.55301e-10 0
115 1 2 4.23614e-05 2.19578 0 8.47228e-05 -3.28244e-10 0
116 1 2 4.658e-05 2.68373 0 9.316e-05 -4.01187e-10 0
117 1 2 5.07985e-05 3.17168 0 0.000101597 -4.7413e-10 0
118 1 2 5.50171e-05 3.65963 0 0.000110034 -5.47073e-10 0
119 1 2 5.92357e-05 4.14758 0 0.000118471 -6.20016e-10 0
120 1 2 6.34542e-05 4.63553 0 0.000126908 -6.92959e-10 0
ITEM: TIMESTEP
20000
ITEM: NUMBER OF ATOMS
120
ITEM: BOX BOUNDS ff ff pp
-7.5000000000000000e+00 7.5000000000000000e+00
-5.0000000000000000e+00 5.0000000000000000e+00
-5.0000000000000000e-01 5.0000000000000000e-01
ITEM: ATOMS id mol type x y z vx vy vz
1 0 1 -7.43149 -4.56516 0 -1.09763 -1.97958 0
2 0 1 -6.36268 -4.84706 0 -0.42714 0.830812 0
3 0 1 -5.18188 -4.39676 0 -1.00878 0.568472 0
4 0 1 -4.16259 -4.56889 0 0.568565 -1.48645 0
5 0 1 -3.3209 -4.58867 0 1.36903 -1.289 0
6 0 1 -2.2052 -4.81945 0 -0.659612 -1.31921 0
7 0 1 -1.14281 -4.74282 0 0.0702869 -1.25131 0
8 0 1 -7.49349 -3.35583 0 1.87492 -1.02245 0
9 0 1 -6.26648 -3.8372 0 1.56204 -0.821568 0
10 0 1 -5.20385 -3.23707 0 1.39998 -1.1271 0
11 0 1 -4.346 -3.50299 0 -0.39134 1.734 0
12 0 1 -2.96514 -3.5856 0 0.499556 0.634264 0
13 0 1 -1.97289 -3.87409 0 1.29085 1.318 0
14 0 1 -1.05956 -3.52485 0 1.13059 -0.729671 0
15 0 1 -7.2913 -2.42098 0 -3.48238 -1.77724 0
16 0 1 -6.34051 -2.85228 0 -1.44552 1.47559 0
17 0 1 -5.23767 -1.99398 0 -0.163362 -0.0595903 0
18 0 1 -4.19366 -2.42663 0 -0.195433 -0.42068 0
19 0 1 -3.26972 -2.71018 0 -0.259579 -0.441635 0
20 0 1 -2.29727 -2.77977 0 0.51116 1.60867 0
21 0 1 -1.25971 -2.28585 0 -0.210191 1.84224 0
22 0 1 -7.23515 -1.35301 0 0.774075 0.208712 0
23 0 1 -6.30681 -1.93444 0 0.725159 1.5776 0
24 0 1 -5.4906 -0.705152 0 0.0902075 -0.991881 0
25 0 1 -4.40918 -1.23316 0 -0.631246 1.1251 0
26 0 1 -3.36172 -1.33223 0 -1.17829 -0.362542 0
27 0 1 -2.37978 -1.50354 0 -0.418692 0.922847 0
28 0 1 -1.22872 -1.37804 0 0.040128 0.519383 0
29 0 1 -7.4177 -0.0967648 0 0.590189 -3.16403 0
30 0 1 -6.50231 -0.325013 0 -0.673334 1.13232 0
31 0 1 -5.4462 0.328625 0 1.9032 -0.829881 0
32 0 1 -4.60449 -0.0170869 0 1.08598 -3.19076 0
33 0 1 -3.6396 -0.112361 0 -1.21922 -0.786652 0
34 0 1 -2.37446 -0.62714 0 -1.08758 1.35191 0
35 0 1 -1.203 -0.297799 0 -0.940414 -0.139064 0
36 0 1 -7.2253 1.08575 0 -1.02985 0.327982 0
37 0 1 -6.28378 0.672974 0 0.628355 0.318205 0
38 0 1 -5.47961 1.37908 0 -0.15625 0.011377 0
39 0 1 -4.46403 1.0737 0 1.03751 0.531206 0
40 0 1 -3.66466 1.85171 0 -1.63939 1.37744 0
41 0 1 -2.38232 0.567974 0 0.390881 -0.0361175 0
42 0 1 -1.32329 0.776276 0 -0.419347 -0.0635783 0
43 0 1 -7.49524 2.16828 0 0.559044 -2.27641 0
44 0 1 -6.4062 2.14315 0 -0.606487 -1.53369 0
45 0 1 -5.42579 2.47436 0 -0.979338 -0.376337 0
46 0 1 -4.53339 2.83148 0 0.437439 -1.71975 0
47 0 1 -3.40015 3.01454 0 -0.979192 -1.35933 0
48 0 1 -2.42564 1.91969 0 -0.188881 0.15934 0
49 0 1 -1.1523 1.89199 0 -0.385007 -0.0876619 0
50 0 1 -7.36572 3.06351 0 -0.996234 0.0639002 0
51 0 1 -6.46919 3.00333 0 1.27464 0.255246 0
52 0 1 -5.05274 3.6776 0 0.345123 0.0811642 0
53 0 1 -4.0014 3.72744 0 1.30214 0.667175 0
54 0 1 -3.01999 3.86273 0 -0.546893 0.68852 0
55 0 1 -1.9646 3.47686 0 1.33838 -0.559516 0
56 0 1 -0.961879 2.95426 0 -0.548363 -0.0768993 0
57 0 1 -7.2199 4.3159 0 0.171052 1.00659 0
58 0 1 -6.27659 4.00474 0 -1.10736 1.57581 0
59 0 1 -5.34298 4.61172 0 -1.62422 -3.21062 0
60 0 1 -4.40162 4.97646 0 1.93756 2.13262 0
61 0 1 -3.43068 4.83428 0 -0.306118 -1.40455 0
62 0 1 -2.32613 4.93113 0 0.3144 -1.55301 0
63 0 1 -0.984772 4.37654 0 1.94932 0.141366 0
64 0 1 1.3091 -4.79151 0 0.70074 2.01222 0
65 0 1 2.41555 -4.89383 0 0.923923 1.8722 0
66 0 1 3.11141 -4.12876 0 -0.90554 0.491382 0
67 0 1 3.7202 -4.8129 0 0.455435 -0.300643 0
68 0 1 4.77414 -4.88787 0 -2.24646 1.19603 0
69 0 1 6.35126 -4.63703 0 -1.8053 0.184502 0
70 0 1 7.28777 -4.92082 0 2.33501 0.317346 0
71 0 1 1.09553 -3.61879 0 0.574408 1.91289 0
72 0 1 2.24324 -2.94884 0 0.808271 -0.632494 0
73 0 1 3.37385 -3.12887 0 1.20347 0.00326199 0
74 0 1 4.35038 -3.61605 0 -1.0707 1.75293 0
75 0 1 5.34379 -3.97478 0 0.311979 -0.678681 0
76 0 1 6.35828 -3.45154 0 -0.272972 -0.414684 0
77 0 1 7.06027 -2.88921 0 0.947917 0.678694 0
78 0 1 1.07057 -2.18228 0 0.503173 2.62577 0
79 0 1 1.99519 -1.694 0 0.288576 0.374805 0
80 0 1 3.54758 -0.984261 0 1.44263 1.23623 0
81 0 1 3.87854 -2.05569 0 0.424679 0.582698 0
82 0 1 5.06478 -2.31463 0 0.778466 -0.324655 0
83 0 1 6.20062 -2.37084 0 0.76796 -0.380863 0
84 0 1 7.37078 -1.46664 0 0.53246 1.31596 0
85 0 1 1.3186 -0.830832 0 0.835243 0.81418 0
86 0 1 2.24268 -0.0885363 0 0.874226 0.244225 0
87 0 1 3.30025 0.206435 0 1.06273 1.37795 0
88 0 1 4.26863 -0.299097 0 -1.07952 -0.786477 0
89 0 1 5.10405 -1.06067 0 -0.685899 -0.844332 0
90 0 1 6.01804 0.216379 0 -1.63054 2.37072 0
91 0 1 7.07437 -0.115196 0 0.030577 0.975321 0
92 0 1 1.26145 0.947594 0 0.174989 1.39117 0
93 0 1 2.55405 1.30768 0 0.841342 1.10194 0
94 0 1 3.58986 1.48049 0 0.892485 1.73363 0
95 0 1 5.22787 2.74593 0 1.46424 3.07562 0
96 0 1 4.90388 0.665679 0 -0.373639 1.94102 0
97 0 1 5.91948 1.54274 0 -1.68601 2.27232 0
98 0 1 7.44364 1.37168 0 0.864429 1.59563 0
99 0 1 1.51926 1.96925 0 0.310701 2.00592 0
100 0 1 2.90391 3.44449 0 1.10388 2.78599 0
101 1 2 -3.3397e-05 -4.63553 0 -3.3397e-05 1.38592e-09 0
102 1 2 -2.49598e-05 -4.14758 0 -2.49598e-05 1.24003e-09 0
103 1 2 -1.65227e-05 -3.65963 0 -1.65227e-05 1.09415e-09 0
104 1 2 -8.08558e-06 -3.17168 0 -8.08558e-06 9.4826e-10 0
105 1 2 3.51547e-07 -2.68373 0 3.51547e-07 8.02374e-10 0
106 1 2 8.78868e-06 -2.19578 0 8.78868e-06 6.56488e-10 0
107 1 2 1.72258e-05 -1.70783 0 1.72258e-05 5.10602e-10 0
108 1 2 2.56629e-05 -1.21988 0 2.56629e-05 3.64715e-10 0
109 1 2 3.41001e-05 -0.731925 0 3.41001e-05 2.18829e-10 0
110 1 2 4.25372e-05 -0.243975 0 4.25372e-05 7.29432e-11 0
111 1 2 5.09743e-05 0.243975 0 5.09743e-05 -7.2943e-11 0
112 1 2 5.94114e-05 0.731925 0 5.94114e-05 -2.18829e-10 0
113 1 2 6.78486e-05 1.21988 0 6.78486e-05 -3.64715e-10 0
114 1 2 7.62857e-05 1.70783 0 7.62857e-05 -5.10601e-10 0
115 1 2 8.47228e-05 2.19578 0 8.47228e-05 -6.56487e-10 0
116 1 2 9.316e-05 2.68373 0 9.316e-05 -8.02374e-10 0
117 1 2 0.000101597 3.17168 0 0.000101597 -9.4826e-10 0
118 1 2 0.000110034 3.65963 0 0.000110034 -1.09415e-09 0
119 1 2 0.000118471 4.14758 0 0.000118471 -1.24003e-09 0
120 1 2 0.000126908 4.63553 0 0.000126908 -1.38592e-09 0
ITEM: TIMESTEP
30000
ITEM: NUMBER OF ATOMS
120
ITEM: BOX BOUNDS ff ff pp
-7.5000000000000000e+00 7.5000000000000000e+00
-5.0000000000000000e+00 5.0000000000000000e+00
-5.0000000000000000e-01 5.0000000000000000e-01
ITEM: ATOMS id mol type x y z vx vy vz
1 0 1 -7.19491 -4.68272 0 1.62397 1.98294 0
2 0 1 -6.15799 -4.94974 0 0.746437 0.458759 0
3 0 1 -5.2414 -4.54382 0 1.09109 -1.22694 0
4 0 1 -4.25556 -4.66711 0 0.580153 1.46589 0
5 0 1 -3.40051 -4.94418 0 -0.466966 1.69751 0
6 0 1 -1.81268 -4.28036 0 -0.385754 1.19095 0
7 0 1 -1.2488 -4.95766 0 -1.02921 0.0684637 0
8 0 1 -7.17738 -3.71727 0 0.181129 0.937631 0
9 0 1 -6.12488 -3.92314 0 -0.445972 -2.22365 0
10 0 1 -5.20167 -3.46511 0 -0.701539 -1.89645 0
11 0 1 -3.48562 -3.63365 0 1.07067 -1.48356 0
12 0 1 -2.7169 -4.24355 0 1.15406 -2.35468 0
13 0 1 -1.97539 -3.32431 0 -0.3534 1.87026 0
14 0 1 -1.02522 -3.65147 0 0.251045 -0.193732 0
15 0 1 -7.33187 -2.86453 0 -3.16349 0.645761 0
16 0 1 -6.29971 -3.0362 0 1.67658 0.703124 0
17 0 1 -5.368 -2.17725 0 2.33235 -1.04506 0
18 0 1 -4.16141 -2.57289 0 0.446517 2.08641 0
19 0 1 -3.22773 -2.33975 0 -0.287443 -0.0174387 0
20 0 1 -2.26367 -2.34011 0 0.500533 2.42 0
21 0 1 -0.982621 -2.25614 0 -1.14559 -0.0273119 0
22 0 1 -7.25043 -1.74813 0 -0.766086 -3.15705 0
23 0 1 -6.18886 -1.48451 0 -1.19028 -0.577746 0
24 0 1 -5.27493 -0.886937 0 -0.744935 -1.18155 0
25 0 1 -4.4718 -1.56666 0 0.402675 -0.923227 0
26 0 1 -3.50392 -1.31759 0 -0.259704 1.02213 0
27 0 1 -2.47131 -1.32825 0 0.447781 -0.112751 0
28 0 1 -1.05799 -1.16348 0 0.287502 0.0359294 0
29 0 1 -7.22659 -0.67398 0 0.604231 0.633729 0
30 0 1 -6.22776 -0.270384 0 -2.25045 1.33676 0
31 0 1 -5.45078 0.269726 0 0.172035 -0.535458 0
32 0 1 -4.32792 -0.501101 0 1.34778 -1.77125 0
33 0 1 -3.34756 -0.370569 0 -0.792685 0.214375 0
34 0 1 -2.34414 -0.390529 0 2.81217 0.339603 0
35 0 1 -1.20933 -0.0502807 0 1.48245 -1.0087 0
36 0 1 -7.40581 0.420963 0 -0.196206 0.311525 0
37 0 1 -6.50024 0.661686 0 -0.680922 0.776978 0
38 0 1 -5.32888 1.40085 0 -1.20068 -1.52871 0
39 0 1 -4.31887 0.709611 0 0.882503 1.70759 0
40 0 1 -3.39544 1.63245 0 1.50345 -1.17242 0
41 0 1 -2.36643 1.15597 0 0.0566917 0.0754379 0
42 0 1 -0.986295 1.0178 0 1.43316 0.975291 0
43 0 1 -7.39911 2.31463 0 0.21022 1.09918 0
44 0 1 -6.50697 1.68983 0 0.174593 -0.514268 0
45 0 1 -5.82049 2.47081 0 -0.229986 1.06749 0
46 0 1 -4.56053 2.04676 0 1.74865 -0.265002 0
47 0 1 -3.39553 2.66878 0 -2.4064 0.204633 0
48 0 1 -2.41283 2.27771 0 1.22208 1.38177 0
49 0 1 -1.56424 1.93954 0 -1.31171 -0.400576 0
50 0 1 -6.94477 3.146 0 0.815946 -1.05905 0
51 0 1 -5.89625 3.43167 0 0.42505 -1.83202 0
52 0 1 -4.77842 3.68163 0 1.41702 1.00141 0
53 0 1 -3.81236 3.68118 0 -0.35337 -0.635339 0
54 0 1 -2.79999 3.65411 0 0.206202 -0.921863 0
55 0 1 -1.52448 3.60842 0 -0.509978 1.45005 0
56 0 1 -0.934768 2.78499 0 -1.429 -0.436483 0
57 0 1 -7.45662 4.55941 0 -2.24652 -1.72451 0
58 0 1 -6.50617 4.19726 0 -0.242539 0.0222301 0
59 0 1 -5.65363 4.55589 0 1.11301 2.11908 0
60 0 1 -4.5275 4.99393 0 0.428406 1.21958 0
61 0 1 -3.24443 4.94027 0 -1.80487 0.0846127 0
62 0 1 -2.27783 4.45093 0 1.59763 0.169922 0
63 0 1 -0.990624 4.48262 0 1.74341 0.929035 0
64 0 1 1.53464 -3.73077 0 0.212539 2.28003 0
65 0 1 1.99376 -4.7884 0 -2.1459 -0.128103 0
66 0 1 3.19169 -3.77899 0 0.742408 0.799213 0
67 0 1 3.25561 -4.78455 0 0.0537838 -0.295621 0
68 0 1 4.38812 -4.81237 0 -1.01961 -0.551118 0
69 0 1 5.62508 -4.91891 0 -2.40713 1.39101 0
70 0 1 6.84697 -4.77388 0 -0.301347 0.339801 0
71 0 1 1.16923 -2.65722 0 -1.2964 1.97866 0
72 0 1 2.26822 -2.79625 0 0.482068 0.98654 0
73 0 1 3.14223 -2.23863 0 -1.5672 1.71463 0
74 0 1 4.38596 -2.90083 0 -1.27719 1.64928 0
75 0 1 5.37953 -3.78713 0 0.451241 0.163983 0
76 0 1 6.46493 -3.64094 0 1.39525 0.00714561 0
77 0 1 7.31541 -2.44323 0 0.917949 0.614952 0
78 0 1 1.02911 -1.10543 0 0.147126 1.5759 0
79 0 1 2.31792 -1.47243 0 -1.33803 -0.299856 0
80 0 1 3.34955 -1.10372 0 1.32891 0.579754 0
81 0 1 4.15084 -1.97126 0 -0.0579817 -0.447491 0
82 0 1 5.241 -2.46688 0 -1.49807 -0.120981 0
83 0 1 6.19976 -2.37824 0 0.105522 0.417641 0
84 0 1 7.36299 -0.808661 0 -0.53246 1.31596 0
85 0 1 1.74916 -0.328692 0 0.883592 1.3688 0
86 0 1 2.71025 0.0509931 0 1.29778 0.450683 0
87 0 1 3.7594 0.943163 0 0.7439 1.37159 0
88 0 1 4.85509 0.287611 0 1.45691 1.40723 0
89 0 1 5.0275 -1.28319 0 1.71287 0.961425 0
90 0 1 5.5626 1.25039 0 -0.365192 1.83994 0
91 0 1 7.09018 0.372299 0 0.03163 0.974988 0
92 0 1 1.33869 1.60245 0 0.153273 1.30494 0
93 0 1 2.88809 1.84174 0 0.648591 1.064 0
94 0 1 3.94234 2.56845 0 -0.386598 3.49304 0
95 0 1 5.95999 4.28374 0 1.46424 3.07562 0
96 0 1 4.54125 1.58686 0 -0.0123175 0.878366 0
97 0 1 5.07648 2.6789 0 -1.68601 2.27232 0
98 0 1 7.12414 2.1695 0 -0.864429 1.59563 0
99 0 1 1.68487 3.01295 0 0.332417 2.09215 0
100 0 1 3.45585 4.83749 0 1.10388 2.78599 0
101 1 2 -5.00955e-05 -4.63553 0 -3.3397e-05 2.07888e-09 0
102 1 2 -3.74398e-05 -4.14758 0 -2.49598e-05 1.86005e-09 0
103 1 2 -2.47841e-05 -3.65963 0 -1.65227e-05 1.64122e-09 0
104 1 2 -1.21284e-05 -3.17168 0 -8.08558e-06 1.42239e-09 0
105 1 2 5.2732e-07 -2.68373 0 3.51547e-07 1.20356e-09 0
106 1 2 1.3183e-05 -2.19578 0 8.78868e-06 9.84731e-10 0
107 1 2 2.58387e-05 -1.70783 0 1.72258e-05 7.65902e-10 0
108 1 2 3.84944e-05 -1.21988 0 2.56629e-05 5.47073e-10 0
109 1 2 5.11501e-05 -0.731925 0 3.41001e-05 3.28244e-10 0
110 1 2 6.38058e-05 -0.243975 0 4.25372e-05 1.09415e-10 0
111 1 2 7.64615e-05 0.243975 0 5.09743e-05 -1.09414e-10 0
112 1 2 8.91172e-05 0.731925 0 5.94114e-05 -3.28244e-10 0
113 1 2 0.000101773 1.21988 0 6.78486e-05 -5.47073e-10 0
114 1 2 0.000114429 1.70783 0 7.62857e-05 -7.65902e-10 0
115 1 2 0.000127084 2.19578 0 8.47228e-05 -9.84731e-10 0
116 1 2 0.00013974 2.68373 0 9.316e-05 -1.20356e-09 0
117 1 2 0.000152396 3.17168 0 0.000101597 -1.42239e-09 0
118 1 2 0.000165051 3.65963 0 0.000110034 -1.64122e-09 0
119 1 2 0.000177707 4.14758 0 0.000118471 -1.86005e-09 0
120 1 2 0.000190363 4.63553 0 0.000126908 -2.07888e-09 0
ITEM: TIMESTEP
40000
ITEM: NUMBER OF ATOMS
120
ITEM: BOX BOUNDS ff ff pp
-7.5000000000000000e+00 7.5000000000000000e+00
-5.0000000000000000e+00 5.0000000000000000e+00
-5.0000000000000000e-01 5.0000000000000000e-01
ITEM: ATOMS id mol type x y z vx vy vz
1 0 1 -7.40864 -4.82024 0 -1.13328 -0.628858 0
2 0 1 -5.91044 -4.6886 0 0.650296 0.862181 0
3 0 1 -4.65244 -4.82289 0 -0.628882 0.791738 0
4 0 1 -3.96992 -3.80162 0 0.384965 0.188616 0
5 0 1 -3.71246 -4.71513 0 2.33407 -1.07956 0
6 0 1 -1.95827 -4.0447 0 -0.212506 -1.06715 0
7 0 1 -1.0454 -4.74206 0 0.438614 0.461785 0
8 0 1 -7.22646 -3.55807 0 0.965633 2.63669 0
9 0 1 -6.37493 -3.50152 0 -0.262757 0.593882 0
10 0 1 -5.27347 -3.83193 0 -0.318694 -0.257506 0
11 0 1 -2.80969 -3.71506 0 1.47334 0.765407 0
12 0 1 -2.41978 -4.93343 0 0.168081 1.9725 0
13 0 1 -2.11542 -2.92505 0 0.512622 -0.202426 0
14 0 1 -1.24198 -3.27883 0 -0.315044 -0.55266 0
15 0 1 -7.13672 -2.64639 0 -1.462 -1.99496 0
16 0 1 -5.85454 -2.50773 0 1.6933 1.1925 0
17 0 1 -4.68567 -2.93244 0 1.51759 -1.77845 0
18 0 1 -3.59881 -2.77795 0 0.076099 -0.0421999 0
19 0 1 -2.86539 -2.13817 0 2.73613 2.63414 0
20 0 1 -2.18973 -1.31 0 -0.5453 1.73205 0
21 0 1 -0.990458 -2.17977 0 -1.28714 -0.517954 0
22 0 1 -7.44228 -1.4887 0 -0.675054 0.867249 0
23 0 1 -6.38039 -1.56924 0 -0.272021 0.76562 0
24 0 1 -5.50399 -1.06196 0 1.50283 0.45383 0
25 0 1 -4.67732 -1.7115 0 -0.0460216 -0.230242 0
26 0 1 -3.45155 -1.40464 0 -1.16928 0.16701 0
27 0 1 -2.99104 -0.586873 0 -3.24277 0.819244 0
28 0 1 -1.21528 -1.16946 0 -0.956656 0.549831 0
29 0 1 -7.14026 -0.606439 0 0.582727 -0.474546 0
30 0 1 -6.10383 -0.287897 0 -0.127772 -0.083918 0
31 0 1 -5.20602 -0.137697 0 1.46831 -0.0169296 0
32 0 1 -4.20179 -0.385521 0 0.478188 -2.53322 0
33 0 1 -2.92565 0.46649 0 0.573582 0.05436 0
34 0 1 -1.96369 -0.0769809 0 -0.622019 -0.583962 0
35 0 1 -1.0224 -0.332468 0 0.833284 0.14906 0
36 0 1 -7.37787 0.784751 0 1.23628 2.11701 0
37 0 1 -6.42885 0.860453 0 1.40677 -0.453343 0
38 0 1 -5.2857 1.13512 0 1.46907 -1.24911 0
39 0 1 -3.93388 0.719334 0 0.546121 1.9181 0
40 0 1 -3.10225 1.45974 0 -1.00007 1.27137 0
41 0 1 -2.28342 1.05483 0 0.200816 0.7835 0
42 0 1 -1.20837 0.707841 0 -0.80189 -0.104362 0
43 0 1 -7.3557 2.56424 0 0.307369 1.40525 0
44 0 1 -6.307 1.92776 0 0.787997 0.781994 0
45 0 1 -5.42912 2.05559 0 0.119268 -1.39263 0
46 0 1 -4.26061 1.99387 0 2.46908 -0.113574 0
47 0 1 -3.7338 2.91742 0 0.12792 0.765645 0
48 0 1 -2.70617 2.41203 0 -1.52935 -0.0255022 0
49 0 1 -1.58502 1.82534 0 2.52025 1.62321 0
50 0 1 -6.57385 3.19408 0 -0.444079 0.246337 0
51 0 1 -5.5361 3.06074 0 0.324534 0.855938 0
52 0 1 -4.63981 3.7142 0 0.413783 -1.42693 0
53 0 1 -3.70195 4.13809 0 0.465344 0.241079 0
54 0 1 -2.61849 3.83493 0 -0.844364 -2.52957 0
55 0 1 -1.50296 4.02106 0 0.301419 1.66258 0
56 0 1 -1.55279 2.82051 0 -0.566305 0.186825 0
57 0 1 -7.33187 4.08457 0 -1.62636 -1.35085 0
58 0 1 -6.38608 4.37611 0 0.692959 0.643819 0
59 0 1 -5.21505 4.61033 0 1.28298 -0.340027 0
60 0 1 -4.23077 4.87883 0 0.251499 -1.05686 0
61 0 1 -3.20763 4.94522 0 -0.328318 0.872435 0
62 0 1 -2.14011 4.9498 0 3.20697 2.22806 0
63 0 1 -0.999552 4.92113 0 0.480741 -1.15205 0
64 0 1 1.22501 -2.96777 0 -1.09142 0.722914 0
65 0 1 0.929836 -4.85438 0 -1.72498 -0.221475 0
66 0 1 2.74686 -3.9645 0 -2.10526 -1.27378 0
67 0 1 2.72956 -4.99529 0 -2.05766 0.469343 0
68 0 1 3.86604 -4.80407 0 -1.1614 0.854588 0
69 0 1 4.94742 -4.35479 0 -0.285748 1.2666 0
70 0 1 6.69575 -4.67566 0 -0.309826 0.0601721 0
71 0 1 0.945004 -2.0322 0 0.780237 -0.0556094 0
72 0 1 2.52133 -2.28026 0 0.915374 1.3625 0
73 0 1 2.99618 -1.25257 0 0.0231647 1.96271 0
74 0 1 4.12469 -2.76866 0 0.0654988 0.716429 0
75 0 1 5.64481 -3.40029 0 0.582037 1.02056 0
76 0 1 7.1671 -3.56515 0 1.41187 0.287851 0
77 0 1 7.36752 -2.13653 0 0.485269 0.611838 0
78 0 1 1.1662 -0.312911 0 0.042506 1.90999 0
79 0 1 1.87887 -1.14268 0 1.25227 2.05456 0
80 0 1 3.78186 -0.502615 0 1.17488 0.283893 0
81 0 1 4.24592 -1.58155 0 -0.0504335 0.919143 0
82 0 1 5.01463 -2.30901 0 0.827796 0.109923 0
83 0 1 6.30722 -2.14922 0 -0.883173 0.461789 0
84 0 1 7.09937 -0.186303 0 -0.515859 1.00527 0
85 0 1 2.1142 0.373443 0 0.722328 1.42121 0
86 0 1 3.35622 0.510682 0 -0.00517107 1.22658 0
87 0 1 3.7754 1.36641 0 0.535215 2.04385 0
88 0 1 5.57729 0.972673 0 1.42504 1.30521 0
89 0 1 5.88403 -0.802403 0 1.71307 0.961585 0
90 0 1 5.78404 2.07506 0 0.779455 1.62378 0
91 0 1 7.10339 0.895417 0 0.0150297 1.28568 0
92 0 1 1.41532 2.25492 0 0.153273 1.30494 0
93 0 1 3.20832 2.31276 0 0.584252 -1.26656 0
94 0 1 3.15632 3.20812 0 -2.42968 0.108268 0
95 0 1 6.69211 4.17845 0 1.46424 -3.07562 0
96 0 1 4.5266 2.47046 0 -0.206185 1.97963 0
97 0 1 4.64913 3.78649 0 -0.487265 2.17876 0
98 0 1 6.69193 2.96731 0 -0.864429 1.59563 0
99 0 1 1.85108 4.05902 0 0.332417 2.09215 0
100 0 1 4.18892 4.96593 0 2.0119 3.02401 0
101 1 2 -6.67939e-05 -4.63553 0 -3.3397e-05 2.77184e-09 0
102 1 2 -4.99197e-05 -4.14758 0 -2.49598e-05 2.48006e-09 0
103 1 2 -3.30454e-05 -3.65963 0 -1.65227e-05 2.18829e-09 0
104 1 2 -1.61712e-05 -3.17168 0 -8.08558e-06 1.89652e-09 0
105 1 2 7.03094e-07 -2.68373 0 3.51547e-07 1.60475e-09 0
106 1 2 1.75774e-05 -2.19578 0 8.78868e-06 1.31298e-09 0
107 1 2 3.44516e-05 -1.70783 0 1.72258e-05 1.0212e-09 0
108 1 2 5.13259e-05 -1.21988 0 2.56629e-05 7.29431e-10 0
109 1 2 6.82001e-05 -0.731925 0 3.41001e-05 4.37658e-10 0
110 1 2 8.50744e-05 -0.243975 0 4.25372e-05 1.45886e-10 0
111 1 2 0.000101949 0.243975 0 5.09743e-05 -1.45886e-10 0
112 1 2 0.000118823 0.731925 0 5.94114e-05 -4.37658e-10 0
113 1 2 0.000135697 1.21988 0 6.78486e-05 -7.29431e-10 0
114 1 2 0.000152571 1.70783 0 7.62857e-05 -1.0212e-09 0
115 1 2 0.000169446 2.19578 0 8.47228e-05 -1.31298e-09 0
116 1 2 0.00018632 2.68373 0 9.316e-05 -1.60475e-09 0
117 1 2 0.000203194 3.17168 0 0.000101597 -1.89652e-09 0
118 1 2 0.000220068 3.65963 0 0.000110034 -2.18829e-09 0
119 1 2 0.000236943 4.14758 0 0.000118471 -2.48006e-09 0
120 1 2 0.000253817 4.63553 0 0.000126908 -2.77184e-09 0
ITEM: TIMESTEP
50000
ITEM: NUMBER OF ATOMS
120
ITEM: BOX BOUNDS ff ff pp
-7.5000000000000000e+00 7.5000000000000000e+00
-5.0000000000000000e+00 5.0000000000000000e+00
-5.0000000000000000e-01 5.0000000000000000e-01
ITEM: ATOMS id mol type x y z vx vy vz
1 0 1 -7.14644 -4.95432 0 0.369606 0.04914 0
2 0 1 -6.01718 -4.75292 0 -0.377092 -0.534921 0
3 0 1 -4.77164 -4.89101 0 0.237421 1.5849 0
4 0 1 -3.84677 -3.99018 0 0.283241 -0.957987 0
5 0 1 -3.53507 -4.76867 0 0.617393 0.0863227 0
6 0 1 -1.94195 -3.98504 0 -0.875717 -0.0687655 0
7 0 1 -0.975039 -4.80701 0 1.46256 1.75325 0
8 0 1 -6.54369 -3.85519 0 2.76837 1.59483 0
9 0 1 -5.99927 -3.10457 0 -0.272324 -0.348578 0
10 0 1 -5.16807 -3.88479 0 -1.36313 -1.32092 0
11 0 1 -2.82486 -3.95706 0 -0.435492 -2.95284 0
12 0 1 -1.99161 -4.91765 0 -1.16447 0.080797 0