ITEM: TIMESTEP
0
ITEM: NUMBER OF ATOMS
120
ITEM: BOX BOUNDS ff ff pp
-7.5000000000000000e+00 7.5000000000000000e+00
-5.0000000000000000e+00 5.0000000000000000e+00
-5.0000000000000000e-01 5.0000000000000000e-01
ITEM: ATOMS id mol type x y z
1 0 1 -6.67424 -3.81385 0
2 0 1 -5.72078 -3.81385 0
3 0 1 -4.76731 -3.81385 0
4 0 1 -3.81385 -3.81385 0
5 0 1 -2.86039 -3.81385 0
6 0 1 -1.90693 -3.81385 0
7 0 1 -0.953463 -3.81385 0
8 0 1 -6.67424 -2.86039 0
9 0 1 -5.72078 -2.86039 0
10 0 1 -4.76731 -2.86039 0
11 0 1 -3.81385 -2.86039 0
12 0 1 -2.86039 -2.86039 0
13 0 1 -1.90693 -2.86039 0
14 0 1 -0.953463 -2.86039 0
15 0 1 -6.67424 -1.90693 0
16 0 1 -5.72078 -1.90693 0
17 0 1 -4.76731 -1.90693 0
18 0 1 -3.81385 -1.90693 0
19 0 1 -2.86039 -1.90693 0
20 0 1 -1.90693 -1.90693 0
21 0 1 -0.953463 -1.90693 0
22 0 1 -6.67424 -0.953463 0
23 0 1 -5.72078 -0.953463 0
24 0 1 -4.76731 -0.953463 0
25 0 1 -3.81385 -0.953463 0
26 0 1 -2.86039 -0.953463 0
27 0 1 -1.90693 -0.953463 0
28 0 1 -0.953463 -0.953463 0
29 0 1 -6.67424 0 0
30 0 1 -5.72078 0 0
31 0 1 -4.76731 0 0
32 0 1 -3.81385 0 0
33 0 1 -2.86039 0 0
34 0 1 -1.90693 0 0
35 0 1 -0.953463 0 0
36 0 1 -6.67424 0.953463 0
37 0 1 -5.72078 0.953463 0
38 0 1 -4.76731 0.953463 0
39 0 1 -3.81385 0.953463 0
40 0 1 -2.86039 0.953463 0
41 0 1 -1.90693 0.953463 0
42 0 1 -0.953463 0.953463 0
43 0 1 -6.67424 1.90693 0
44 0 1 -5.72078 1.90693 0
45 0 1 -4.76731 1.90693 0
46 0 1 -3.81385 1.90693 0
47 0 1 -2.86039 1.90693 0
48 0 1 -1.90693 1.90693 0
49 0 1 -0.953463 1.90693 0
50 0 1 -6.67424 2.86039 0
51 0 1 -5.72078 2.86039 0
52 0 1 -4.76731 2.86039 0
53 0 1 -3.81385 2.86039 0
54 0 1 -2.86039 2.86039 0
55 0 1 -1.90693 2.86039 0
56 0 1 -0.953463 2.86039 0
57 0 1 -6.67424 3.81385 0
58 0 1 -5.72078 3.81385 0
59 0 1 -4.76731 3.81385 0
60 0 1 -3.81385 3.81385 0
61 0 1 -2.86039 3.81385 0
62 0 1 -1.90693 3.81385 0
63 0 1 -0.953463 3.81385 0
64 0 1 0.953463 -3.81385 0
65 0 1 1.90693 -3.81385 0
66 0 1 2.86039 -3.81385 0
67 0 1 3.81385 -3.81385 0
68 0 1 4.76731 -3.81385 0
69 0 1 5.72078 -3.81385 0
70 0 1 6.67424 -3.81385 0
71 0 1 0.953463 -2.86039 0
72 0 1 1.90693 -2.86039 0
73 0 1 2.86039 -2.86039 0
74 0 1 3.81385 -2.86039 0
75 0 1 4.76731 -2.86039 0
76 0 1 5.72078 -2.86039 0
77 0 1 6.67424 -2.86039 0
78 0 1 0.953463 -1.90693 0
79 0 1 1.90693 -1.90693 0
80 0 1 2.86039 -1.90693 0
81 0 1 3.81385 -1.90693 0
82 0 1 4.76731 -1.90693 0
83 0 1 5.72078 -1.90693 0
84 0 1 6.67424 -1.90693 0
85 0 1 0.953463 -0.953463 0
86 0 1 1.90693 -0.953463 0
87 0 1 2.86039 -0.953463 0
88 0 1 3.81385 -0.953463 0
89 0 1 4.76731 -0.953463 0
90 0 1 5.72078 -0.953463 0
91 0 1 6.67424 -0.953463 0
92 0 1 0.953463 0 0
93 0 1 1.90693 0 0
94 0 1 2.86039 0 0
95 0 1 3.81385 0 0
96 0 1 4.76731 0 0
97 0 1 5.72078 0 0
98 0 1 6.67424 0 0
99 0 1 0.953463 0.953463 0
100 0 1 1.90693 0.953463 0
101 1 2 0 -4.52895 0
102 1 2 0 -4.05222 0
103 1 2 0 -3.57548 0
104 1 2 0 -3.09875 0
105 1 2 0 -2.62202 0
106 1 2 0 -2.14529 0
107 1 2 0 -1.66856 0
108 1 2 0 -1.19183 0
109 1 2 0 -0.715097 0
110 1 2 0 -0.238366 0
111 1 2 0 0.238366 0
112 1 2 0 0.715097 0
113 1 2 0 1.19183 0
114 1 2 0 1.66856 0
115 1 2 0 2.14529 0
116 1 2 0 2.62202 0
117 1 2 0 3.09875 0
118 1 2 0 3.57548 0
119 1 2 0 4.05222 0
120 1 2 0 4.52895 0
ITEM: TIMESTEP
100000
ITEM: NUMBER OF ATOMS
120
ITEM: BOX BOUNDS ff ff pp
-7.5000000000000000e+00 7.5000000000000000e+00
-5.0000000000000000e+00 5.0000000000000000e+00
-5.0000000000000000e-01 5.0000000000000000e-01
ITEM: ATOMS id mol type x y z
1 0 1 -7.10309 -3.81203 0
2 0 1 -5.48831 -4.94515 0
3 0 1 -4.95229 -3.55632 0
4 0 1 -4.58146 -4.96168 0
5 0 1 -2.28203 -4.65401 0
6 0 1 -1.04879 -4.90581 0
7 0 1 -3.27707 -3.92362 0
8 0 1 -7.12535 -4.82104 0
9 0 1 -5.3875 -2.57012 0
10 0 1 -6.05126 -3.95668 0
11 0 1 -4.05054 -2.96705 0
12 0 1 -2.25366 -3.24994 0
13 0 1 -3.33637 -4.98747 0
14 0 1 -1.2317 -3.64595 0
15 0 1 -6.94412 -1.68398 0
16 0 1 -3.66327 -1.99627 0
17 0 1 -4.58183 -1.96535 0
18 0 1 -4.26622 -4.11224 0
19 0 1 -3.11798 -2.8795 0
20 0 1 -1.14347 -2.60504 0
21 0 1 -1.05186 -1.67355 0
22 0 1 -6.39409 -2.98121 0
23 0 1 -5.85816 -1.12283 0
24 0 1 -6.90647 -0.695719 0
25 0 1 -3.12343 -1.14288 0
26 0 1 -3.38152 -0.0659542 0
27 0 1 -2.13231 -2.27386 0
28 0 1 -0.934327 -0.727766 0
29 0 1 -7.42442 0.233442 0
30 0 1 -6.07023 0.201784 0
31 0 1 -4.17197 0.767369 0
32 0 1 -4.0677 -1.02316 0
33 0 1 -2.07474 -1.11196 0
34 0 1 -2.4788 0.811818 0
35 0 1 -1.46092 0.549321 0
36 0 1 -5.5903 1.15762 0
37 0 1 -5.09133 0.40837 0
38 0 1 -4.52336 1.84195 0
39 0 1 -2.0705 -0.152991 0
40 0 1 -3.57168 2.46431 0
41 0 1 -2.33157 1.94586 0
42 0 1 -1.45079 1.77697 0
43 0 1 -7.06475 1.28131 0
44 0 1 -6.25446 1.80966 0
45 0 1 -5.3934 2.42431 0
46 0 1 -3.35852 1.55682 0
47 0 1 -2.38853 2.97094 0
48 0 1 -2.12769 3.92477 0
49 0 1 -1.39931 2.77108 0
50 0 1 -7.13681 3.56194 0
51 0 1 -7.45868 2.43291 0
52 0 1 -6.55503 4.22491 0
53 0 1 -4.59763 2.97805 0
54 0 1 -1.8793 4.99072 0
55 0 1 -3.12535 4.30466 0
56 0 1 -0.936167 3.80272 0
57 0 1 -7.23179 4.92343 0
58 0 1 -5.69431 4.64438 0
59 0 1 -3.60463 3.42588 0
60 0 1 -6.21605 2.95883 0
61 0 1 -5.47819 3.66089 0
62 0 1 -4.11909 4.18163 0
63 0 1 -0.954092 4.81797 0
64 0 1 1.6082 -4.94897 0
65 0 1 5.11599 -4.02606 0
66 0 1 2.25863 -1.74433 0
67 0 1 3.58185 -4.42746 0
68 0 1 2.65927 -2.94132 0
69 0 1 3.6216 -0.769301 0
70 0 1 7.31564 -4.61443 0
71 0 1 1.09873 -2.35425 0
72 0 1 2.57392 -4.81461 0
73 0 1 0.983149 0.918732 0
74 0 1 1.18657 -3.8323 0
75 0 1 6.83762 -2.25006 0
76 0 1 1.77819 -0.382686 0
77 0 1 6.09795 -4.89947 0
78 0 1 2.18815 2.15645 0
79 0 1 4.53222 -0.653422 0
80 0 1 2.50903 1.28455 0
81 0 1 3.94617 -1.88882 0
82 0 1 6.94209 -3.71082 0
83 0 1 4.32607 -2.9415 0
84 0 1 6.03524 1.05315 0
85 0 1 4.0172 0.724811 0
86 0 1 5.92801 -1.06276 0
87 0 1 2.90566 0.273069 0
88 0 1 5.58497 3.67451 0
89 0 1 7.0694 1.44719 0
90 0 1 6.92505 3.59944 0
91 0 1 7.00171 2.63496 0
92 0 1 2.9619 3.89997 0
93 0 1 5.20345 0.589941 0
94 0 1 4.91981 4.88831 0
95 0 1 7.2024 4.69906 0
96 0 1 3.88998 4.63543 0
97 0 1 4.14296 2.90924 0
98 0 1 6.12489 4.59647 0
99 0 1 0.976713 4.95011 0
100 0 1 4.63464 1.55852 0
101 1 2 -0.000103033 -4.52895 0
102 1 2 -7.70033e-05 -4.05222 0
103 1 2 -5.0974e-05 -3.57548 0
104 1 2 -2.49447e-05 -3.09875 0
105 1 2 1.08455e-06 -2.62202 0
106 1 2 2.71138e-05 -2.14529 0
107 1 2 5.31431e-05 -1.66856 0
108 1 2 7.91724e-05 -1.19183 0
109 1 2 0.000105202 -0.715097 0
110 1 2 0.000131231 -0.238366 0
111 1 2 0.00015726 0.238366 0
112 1 2 0.000183289 0.715097 0
113 1 2 0.000209319 1.19183 0
114 1 2 0.000235348 1.66856 0
115 1 2 0.000261377 2.14529 0
116 1 2 0.000287407 2.62202 0
117 1 2 0.000313436 3.09875 0
118 1 2 0.000339465 3.57548 0
119 1 2 0.000365494 4.05222 0
120 1 2 0.000391524 4.52895 0
