ITEM: TIMESTEP
0
ITEM: NUMBER OF ATOMS
100
ITEM: BOX BOUNDS ff ff pp
-7.5000000000000000e+00 7.5000000000000000e+00
-5.0000000000000000e+00 5.0000000000000000e+00
-5.0000000000000000e-01 5.0000000000000000e-01
ITEM: ATOMS id mol type x y z vx vy vz
1 0 1 -6.5 -4.5 0 0.709611 0.30048 0
2 0 1 -6.5 -2.7 0 0.911279 0.251042 0
3 0 1 -6.5 -0.9 0 -0.620405 0.31008 0
4 0 1 -6.5 0.9 0 -0.26027 0.453531 0
5 0 1 -6.5 2.7 0 -1.16141 -0.751027 0
6 0 1 -5.3 -4.5 0 -0.420191 -0.689621 0
7 0 1 -5.3 -2.7 0 0.0601916 -0.829332 0
8 0 1 -5.3 -0.9 0 0.611587 0.0752086 0
9 0 1 -5.3 0.9 0 0.661855 -0.700079 0
10 0 1 -5.3 2.7 0 -0.310033 -0.430922 0
11 0 1 -4.1 -4.5 0 -0.384718 -1.08011 0
12 0 1 -4.1 -2.7 0 -0.886606 -0.0934366 0
13 0 1 -4.1 -0.9 0 0.238728 -0.434522 0
14 0 1 -4.1 0.9 0 -0.285013 -0.506302 0
15 0 1 -4.1 2.7 0 -0.0453903 -0.252183 0
16 0 1 -2.9 -4.5 0 -0.0781688 0.164965 0
17 0 1 -2.9 -2.7 0 -0.18389 -0.320864 0
18 0 1 -2.9 -0.9 0 0.753724 -1.498 0
19 0 1 -2.9 0.9 0 0.117156 -0.488421 0
20 0 1 -2.9 2.7 0 0.267201 -0.655759 0
21 0 1 -1.7 -4.5 0 0.140469 0.122634 0
22 0 1 -1.7 -2.7 0 -0.386032 1.61061 0
23 0 1 -1.7 -0.9 0 -0.209927 0.0533746 0
24 0 1 -1.7 0.9 0 1.0822 0.90383 0
25 0 1 -1.7 2.7 0 0.663638 -0.0851019 0
26 0 1 -0.5 -4.5 0 -0.171831 -0.0699892 0
27 0 1 -0.5 -2.7 0 1.38256 -0.288012 0
28 0 1 -0.5 -0.9 0 0.202217 0.137088 0
29 0 1 -0.5 0.9 0 -0.395866 -0.315995 0
30 0 1 -0.5 2.7 0 -0.127807 -0.18079 0
31 0 1 0.7 -4.5 0 0.814024 0.368355 0
32 0 1 0.7 -2.7 0 -0.131411 1.12742 0
33 0 1 0.7 -0.9 0 -0.602775 0.0191693 0
34 0 1 0.7 0.9 0 -0.968234 -0.137356 0
35 0 1 0.7 2.7 0 0.847052 0.438134 0
36 0 1 1.9 -4.5 0 0.592986 0.0125764 0
37 0 1 1.9 -2.7 0 -0.600802 -0.157607 0
38 0 1 1.9 -0.9 0 -0.785305 0.196867 0
39 0 1 1.9 0.9 0 1.21766 -0.213603 0
40 0 1 1.9 2.7 0 -0.547938 0.428734 0
41 0 1 3.1 -4.5 0 -0.124406 -0.194506 0
42 0 1 3.1 -2.7 0 -0.965054 -0.546003 0
43 0 1 3.1 -0.9 0 -0.135181 0.00544096 0
44 0 1 3.1 0.9 0 -0.290291 -0.254134 0
45 0 1 3.1 2.7 0 0.173139 -0.135108 0
46 0 1 4.3 -4.5 0 -0.499223 0.30806 0
47 0 1 4.3 -2.7 0 0.421279 1.0381 0
48 0 1 4.3 -0.9 0 -0.181399 0.018505 0
49 0 1 4.3 0.9 0 -0.292335 -0.625917 0
50 0 1 4.3 2.7 0 -0.470288 0.251394 0
51 0 1 0.7 -4.5 0 -0.886243 -0.812168 0
52 0 1 0.7 -2.7 0 0.0687397 0.60676 0
53 0 1 0.7 -0.9 0 1.3861 2.09148 0
54 0 1 0.7 0.9 0 -0.819222 0.811268 0
55 0 1 0.7 2.7 0 0.149062 0.482305 0
56 0 1 1.9 -4.5 0 1.02685 -0.590076 0
57 0 1 1.9 -2.7 0 0.487055 -0.589922 0
58 0 1 1.9 -0.9 0 0.173252 -0.972836 0
59 0 1 1.9 0.9 0 -0.745578 1.9825 0
60 0 1 1.9 2.7 0 -0.403695 0.469233 0
61 0 1 3.1 -4.5 0 0.890763 -0.845575 0
62 0 1 3.1 -2.7 0 -1.29445 -0.389068 0
63 0 1 3.1 -0.9 0 0.109301 -0.619684 0
64 0 1 3.1 0.9 0 -0.228968 -0.579763 0
65 0 1 3.1 2.7 0 0.483761 0.750299 0
66 0 1 4.3 -4.5 0 -0.203161 0.240772 0
67 0 1 4.3 -2.7 0 0.604881 -0.606507 0
68 0 1 4.3 -0.9 0 -0.484256 -0.518325 0
69 0 1 4.3 0.9 0 -0.259723 -0.00180086 0
70 0 1 4.3 2.7 0 0.896699 0.689605 0
71 0 1 5.5 -4.5 0 -0.156487 -0.291204 0
72 0 1 5.5 -2.7 0 -0.162464 0.246213 0
73 0 1 5.5 -0.9 0 1.26094 0.66881 0
74 0 1 5.5 0.9 0 -0.422874 0.280881 0
75 0 1 5.5 2.7 0 -0.470471 0.0955206 0
76 0 1 6.7 -4.5 0 -0.403703 0.692624 0
77 0 1 6.7 -2.7 0 0.565333 -0.172256 0
78 0 1 6.7 -0.9 0 -0.0645099 0.0304554 0
79 0 1 6.7 0.9 0 -0.651604 -0.616943 0
80 0 1 6.7 2.7 0 0.208305 0.806511 0
81 1 2 0 -4.75 0 0 0 0
82 1 2 0 -4.25 0 0 0 0
83 1 2 0 -3.75 0 0 0 0
84 1 2 0 -3.25 0 0 0 0
85 1 2 0 -2.75 0 0 0 0
86 1 2 0 -2.25 0 0 0 0
87 1 2 0 -1.75 0 0 0 0
88 1 2 0 -1.25 0 0 0 0
89 1 2 0 -0.75 0 0 0 0
90 1 2 0 -0.25 0 0 0 0
91 1 2 0 0.25 0 0 0 0
92 1 2 0 0.75 0 0 0 0
93 1 2 0 1.25 0 0 0 0
94 1 2 0 1.75 0 0 0 0
95 1 2 0 2.25 0 0 0 0
96 1 2 0 2.75 0 0 0 0
97 1 2 0 3.25 0 0 0 0
98 1 2 0 3.75 0 0 0 0
99 1 2 0 4.25 0 0 0 0
100 1 2 0 4.75 0 0 0 0
