ITEM: TIMESTEP
0
ITEM: NUMBER OF ATOMS
101
ITEM: BOX BOUNDS ff ff pp
-2.0000000000000000e+01 2.0000000000000000e+01
-5.0000000000000000e+00 5.0000000000000000e+00
-5.0000000000000000e-01 5.0000000000000000e-01
ITEM: ATOMS id type x y z vx vy vz
1 1 -18.735 -2.77555 0 1.0885 0.494965 0
2 1 -17.2938 -2.77555 0 1.40981 0.416195 0
3 1 -15.8527 -2.77555 0 -1.03058 0.510259 0
4 1 -14.4115 -2.77555 0 -0.456787 0.738815 0
5 1 -12.9704 -2.77555 0 -1.89254 -1.18037 0
6 1 -11.5292 -2.77555 0 -0.711584 -1.08253 0
7 1 -10.0881 -2.77555 0 0.0537948 -1.30513 0
8 1 -8.64692 -2.77555 0 0.932317 0.136046 0
9 1 -7.20577 -2.77555 0 1.01241 -1.0992 0
10 1 -5.76461 -2.77555 0 -0.536073 -0.670358 0
11 1 -4.32346 -2.77555 0 -0.655067 -1.70469 0
12 1 -2.88231 -2.77555 0 -1.45471 -0.132652 0
13 1 -1.44115 -2.77555 0 0.338252 -0.676094 0
14 1 -18.735 -2.08167 0 -0.496209 -0.790458 0
15 1 -17.2938 -2.08167 0 -0.114426 -0.385578 0
16 1 -15.8527 -2.08167 0 -0.166651 0.279052 0
17 1 -14.4115 -2.08167 0 -0.335093 -0.495006 0
18 1 -12.9704 -2.08167 0 1.15878 -2.37051 0
19 1 -11.5292 -2.08167 0 0.144554 -0.761969 0
20 1 -10.0881 -2.08167 0 0.383616 -1.02858 0
21 1 -8.64692 -2.08167 0 0.181698 0.211607 0
22 1 -7.20577 -2.08167 0 -0.657161 2.58236 0
23 1 -5.76461 -2.08167 0 -0.376577 0.101258 0
24 1 -4.32346 -2.08167 0 1.68213 1.45626 0
25 1 -2.88231 -2.08167 0 1.01525 -0.119373 0
26 1 -1.44115 -2.08167 0 -0.315881 -0.0952939 0
27 1 -18.735 -1.38778 0 2.16068 -0.442663 0
28 1 -17.2938 -1.38778 0 0.28008 0.234636 0
29 1 -15.8527 -1.38778 0 -0.672828 -0.487247 0
30 1 -14.4115 -1.38778 0 -0.245738 -0.27183 0
31 1 -12.9704 -1.38778 0 1.25485 0.603108 0
32 1 -11.5292 -1.38778 0 -0.25148 1.8125 0
33 1 -10.0881 -1.38778 0 -1.00249 0.0467597 0
34 1 -8.64692 -1.38778 0 -1.58477 -0.202628 0
35 1 -7.20577 -1.38778 0 1.30748 0.714284 0
36 1 -5.76461 -1.38778 0 0.902681 0.0362554 0
37 1 -4.32346 -1.38778 0 -0.999347 -0.234893 0
38 1 -2.88231 -1.38778 0 -1.29331 0.32988 0
39 1 -1.44115 -1.38778 0 1.89796 -0.32411 0
40 1 -18.735 -0.693889 0 -0.91512 0.699307 0
41 1 -17.2938 -0.693889 0 -0.240319 -0.293683 0
42 1 -15.8527 -0.693889 0 -1.5797 -0.853713 0
43 1 -14.4115 -0.693889 0 -0.257486 0.0248867 0
44 1 -12.9704 -0.693889 0 -0.50462 -0.388686 0
45 1 -11.5292 -0.693889 0 0.23375 -0.199047 0
46 1 -10.0881 -0.693889 0 -0.837505 0.507041 0
47 1 -8.64692 -0.693889 0 0.629105 1.6702 0
48 1 -7.20577 -0.693889 0 -0.331125 0.0457013 0
49 1 -5.76461 -0.693889 0 -0.507876 -0.981038 0
50 1 -4.32346 -0.693889 0 -0.791403 0.416756 0
51 1 -2.88231 -0.693889 0 -1.45413 -1.27779 0
52 1 -1.44115 -0.693889 0 0.0674141 0.982952 0
53 1 -18.735 0 0 2.16633 3.34852 0
54 1 -17.2938 0 0 -1.34735 1.30879 0
55 1 -15.8527 0 0 0.19539 0.78466 0
56 1 -14.4115 0 0 1.59395 -0.923933 0
57 1 -12.9704 0 0 0.733904 -0.923688 0
58 1 -11.5292 0 0 0.233931 -1.53377 0
59 1 -10.0881 0 0 -1.23002 3.17487 0
60 1 -8.64692 0 0 -0.685303 0.763833 0
61 1 -7.20577 0 0 1.37712 -1.33101 0
62 1 -5.76461 0 0 -2.10452 -0.603672 0
63 1 -4.32346 0 0 0.13204 -0.971107 0
64 1 -2.88231 0 0 -0.406914 -0.907502 0
65 1 -1.44115 0 0 0.728656 1.21165 0
66 1 -18.735 0.693889 0 -0.365798 0.399833 0
67 1 -17.2938 0.693889 0 0.921632 -0.950112 0
68 1 -15.8527 0.693889 0 -0.813657 -0.809615 0
69 1 -14.4115 0.693889 0 -0.455916 0.0133486 0
70 1 -12.9704 0.693889 0 1.38658 1.11495 0
71 1 -11.5292 0.693889 0 -0.291433 -0.447749 0
72 1 -10.0881 0.693889 0 -0.300957 0.408502 0
73 1 -8.64692 0.693889 0 1.96691 1.08181 0
74 1 -7.20577 0.693889 0 -0.715859 0.463738 0
75 1 -5.76461 0.693889 0 -0.791694 0.168408 0
76 1 -4.32346 0.693889 0 -0.685315 1.11976 0
77 1 -2.88231 0.693889 0 0.858621 -0.258233 0
78 1 -1.44115 0.693889 0 -0.144889 0.0647415 0
79 1 -18.735 1.38778 0 -1.08029 -0.96674 0
80 1 -17.2938 1.38778 0 0.289779 1.30121 0
81 1 -15.8527 1.38778 0 1.0881 0.268693 0
82 1 -14.4115 1.38778 0 -1.38875 0.464126 0
83 1 -12.9704 1.38778 0 -1.46183 -0.275577 0
84 1 -11.5292 1.38778 0 -0.83335 -0.34511 0
85 1 -10.0881 1.38778 0 0.986317 -0.654268 0
86 1 -8.64692 1.38778 0 -0.352685 2.18346 0
87 1 -7.20577 1.38778 0 1.31714 0.199555 0
88 1 -5.76461 1.38778 0 -0.268888 -1.10356 0
89 1 -4.32346 1.38778 0 -1.6356 -1.29431 0
90 1 -2.88231 1.38778 0 0.125974 -0.00312375 0
91 1 -1.44115 1.38778 0 1.34306 0.322443 0
92 1 -18.735 2.08167 0 1.5944 -1.49766 0
93 1 -17.2938 2.08167 0 1.16472 0.113023 0
94 1 -15.8527 2.08167 0 2.10231 -0.555425 0
95 1 -14.4115 2.08167 0 -0.021376 1.06288 0
96 1 -12.9704 2.08167 0 -0.743588 0.162168 0
97 1 -11.5292 2.08167 0 0.0748107 -0.95925 0
98 1 -10.0881 2.08167 0 0.955536 0.228117 0
99 1 -8.64692 2.08167 0 0.0555732 0.544206 0
100 1 -7.20577 2.08167 0 -0.733336 -0.157803 0
101 2 0 0 0 0 0 0
ITEM: TIMESTEP
10000
ITEM: NUMBER OF ATOMS
101
ITEM: BOX BOUNDS ff ff pp
-2.0000000000000000e+01 2.0000000000000000e+01
-5.0000000000000000e+00 5.0000000000000000e+00
-5.0000000000000000e-01 5.0000000000000000e-01
ITEM: ATOMS id type x y z vx vy vz
1 1 -12.8918 -2.05228 0 42.0282 2.73062 0
2 1 -14.1148 -4.0424 0 7.93306 10.4574 0
3 1 -19.434 -2.58341 0 -5.57261 -0.675445 0
4 1 -19.1175 -4.51093 0 -5.63766 17.4596 0
5 1 -10.0933 -4.05062 0 6.66637 11.0425 0
6 1 -12.0342 -3.33795 0 -4.0896 -2.0798 0
7 1 -14.304 -3.26076 0 -6.69373 6.5848 0
8 1 -5.0154 -2.36208 0 0.991254 13.2816 0
9 1 -2.00841 -1.42468 0 11.5208 12.7511 0
10 1 -2.20442 -4.50256 0 14.2936 -2.26553 0
11 1 1.55411 -2.44069 0 18.3657 6.2492 0
12 1 3.00382 -2.81111 0 19.5607 2.50744 0
13 1 14.7512 -4.62247 0 19.2379 1.79901 0
14 1 -19.8602 -3.97329 0 -14.6382 3.51737 0
15 1 -17.7931 -3.57561 0 -9.63011 15.9326 0
16 1 -14.968 2.8076 0 8.18145 2.87191 0
17 1 -15.2879 -0.739329 0 11.615 -10.1872 0
18 1 -11.6008 -4.51136 0 0.0476381 4.53 0
19 1 -5.2561 -1.57829 0 -12.5194 -11.6064 0
20 1 -8.54863 -4.29801 0 -4.7319 5.87008 0
21 1 -7.49593 0.372091 0 5.13427 -1.40079 0
22 1 -8.06469 -2.81326 0 8.22631 -4.27124 0
23 1 -9.40776 0.0649405 0 9.80983 8.65606 0
24 1 -7.49382 -4.98774 0 -2.63373 22.0702 0
25 1 12.93 0.66555 0 25.9643 0.491717 0
26 1 6.91809 0.238368 0 15.7161 16.2674 0
27 1 -15.3655 -3.88997 0 6.14662 -3.18535 0
28 1 -10.8773 -2.35999 0 14.0324 13.4227 0
29 1 -14.491 1.73244 0 -0.162751 -14.5841 0
30 1 -13.8064 -0.553651 0 3.94556 3.3722 0
31 1 -14.417 -1.28716 0 5.85599 -4.77505 0
32 1 -5.91521 -0.0264254 0 5.24939 4.19658 0
33 1 1.11764 0.89524 0 12.6262 -5.2077 0
34 1 -6.994 -2.05234 0 22.2066 -1.25371 0
35 1 -1.88673 -3.51747 0 17.3459 2.76326 0
36 1 5.75116 1.86638 0 19.2242 19.0749 0
37 1 1.2347 -1.50752 0 11.8181 12.3133 0
38 1 9.65815 -3.63122 0 18.1717 1.08144 0
39 1 16.5037 3.07213 0 22.8889 9.2498 0
40 1 -19.1051 -0.29453 0 8.70696 4.86566 0
41 1 -17.71 4.18924 0 -6.16262 -10.1327 0
42 1 -18.1163 -2.55765 0 -4.93019 -5.98354 0
43 1 -17.2448 -1.80604 0 16.007 -5.65951 0
44 1 -11.6897 -0.646385 0 -3.43205 -4.87974 0
45 1 -12.7405 -2.85212 0 1.88059 9.01003 0
46 1 -13.1633 1.36485 0 14.4531 -17.3608 0
47 1 -6.80342 -2.73667 0 15.8367 11.3732 0
48 1 -5.26296 -0.494855 0 9.44393 -2.77181 0
49 1 -3.20004 0.635033 0 3.11987 7.66198 0
50 1 0.914612 -4.78017 0 9.54282 -10.2794 0
51 1 -3.73963 1.5578 0 4.61715 -7.16705 0
52 1 0.949799 -0.325463 0 -1.74094 -10.381 0
53 1 -16.5465 -2.29163 0 6.23821 -8.07653 0
54 1 -15.8729 -4.96173 0 -4.00957 6.31857 0
55 1 -2.33512 -2.11959 0 4.49221 -11.405 0
56 1 -11.4403 4.96571 0 -0.226617 0.788923 0
57 1 -12.8787 -0.123518 0 1.2652 -4.24478 0
58 1 -10.0703 -1.30171 0 8.27317 10.0315 0
59 1 -8.48469 -1.06529 0 10.3998 0.0670016 0
60 1 -10.1619 -0.135232 0 -9.69933 -2.11609 0
61 1 -3.24225 2.73361 0 -1.38993 -7.84214 0
62 1 3.08735 2.19933 0 15.833 -10.3883 0
63 1 0.432396 -1.61783 0 4.02125 -15.6085 0
64 1 4.13453 3.13284 0 24.4691 8.85498 0
65 1 14.8262 2.04001 0 24.1364 -5.50385 0
66 1 -16.2946 -1.0682 0 5.11118 2.11738 0
67 1 -19.3174 4.22584 0 -3.23028 -14.9107 0
68 1 -10.155 -2.26242 0 3.73956 -4.20895 0
69 1 -12.5655 1.76883 0 -1.98213 20.1205 0
70 1 -9.862 0.784609 0 7.07529 3.54908 0
71 1 -11.7652 4.23277 0 9.69222 -5.85254 0
72 1 -6.3096 3.55439 0 -4.87228 3.30916 0
73 1 -5.48662 1.20496 0 6.01256 -2.9256 0
74 1 -4.99261 4.30155 0 5.94889 5.81089 0
75 1 2.28078 -1.08853 0 17.6748 -0.458635 0
76 1 2.29998 3.74523 0 10.2459 7.80541 0
77 1 4.93794 3.08832 0 21.8192 -3.39041 0
78 1 16.8668 4.43533 0 32.4347 3.9658 0
79 1 -18.0669 1.05004 0 1.21006 -4.92516 0
80 1 -17.2338 1.83439 0 -3.58768 12.7877 0
81 1 -19.8603 0.13643 0 4.3843 0.981386 0
82 1 -13.8374 1.92399 0 10.5492 9.65533 0
83 1 -7.341 3.40806 0 6.86638 -3.72881 0
84 1 -19.1888 3.00298 0 -8.68596 -7.07079 0
85 1 -7.52551 2.30727 0 2.14766 11.0744 0
86 1 -1.71155 1.59822 0 6.527 -7.84892 0
87 1 -4.79126 1.84635 0 5.58124 1.67789 0
88 1 -2.9953 4.70225 0 19.6753 -4.14129 0
89 1 -1.08868 3.55378 0 14.5804 -4.02631 0
90 1 3.25742 0.929502 0 16.9951 -4.42723 0
91 1 13.524 -4.53775 0 17.4298 -10.8392 0
92 1 -19.9326 1.98955 0 -14.2671 -18.1906 0
93 1 -13.4932 4.30042 0 1.16487 -0.804551 0
94 1 -10.8446 3.2824 0 7.07087 3.36688 0
95 1 -16.3513 4.05072 0 -12.0229 5.22354 0
96 1 -15.6558 0.106499 0 -13.7075 9.76187 0
97 1 -5.17128 2.99753 0 15.0696 -11.5713 0
98 1 -8.3978 4.27295 0 7.60008 -5.04479 0
99 1 -4.06117 4.98151 0 -0.143952 -16.5407 0
100 1 -1.2433 -0.145088 0 19.8806 5.27449 0
101 2 0 0 0 0 0 0
ITEM: TIMESTEP
20000
ITEM: NUMBER OF ATOMS
101
ITEM: BOX BOUNDS ff ff pp
-2.0000000000000000e+01 2.0000000000000000e+01
-5.0000000000000000e+00 5.0000000000000000e+00
-5.0000000000000000e-01 5.0000000000000000e-01
ITEM: ATOMS id type x y z vx vy vz
1 1 -0.184549 -4.50335 0 13.6999 -3.23015 0
2 1 -7.87455 0.452365 0 -4.15065 -4.37228 0
3 1 -19.8849 -3.73943 0 -3.56517 12.0982 0
4 1 -17.5707 -4.915 0 7.07273 -0.333125 0
5 1 -4.57339 2.36907 0 12.8481 -1.30615 0
6 1 -8.63625 -1.70695 0 3.55808 1.29994 0
7 1 -15.0246 -2.66079 0 8.81715 0.698431 0
8 1 -2.85853 3.33458 0 0.471876 9.57581 0
9 1 6.13939 -0.126346 0 18.2631 -7.29351 0
10 1 14.0454 -3.4726 0 8.11838 6.80616 0
11 1 14.3746 -2.28568 0 30.7117 19.6738 0
12 1 19.8828 -1.08241 0 6.78989 25.9359 0
13 1 10.5133 -2.5364 0 -2.97601 9.07228 0
14 1 -14.5856 -4.42154 0 4.92242 4.19324 0
15 1 -16.582 -3.03747 0 8.85714 -13.4732 0
16 1 -13.2787 1.76029 0 -10.9332 0.879558 0
17 1 -11.5525 -1.65783 0 -7.54767 -9.66445 0
18 1 -10.6954 -1.33481 0 1.76997 4.49709 0
19 1 1.29235 -3.00328 0 22.2993 -3.40447 0
20 1 -4.69781 -2.48138 0 0.926071 3.12163 0
21 1 -3.40101 -0.384705 0 13.7364 0.00557548 0
22 1 -3.15861 2.00569 0 11.4601 8.06211 0
23 1 5.43949 0.946891 0 4.73929 6.55379 0
24 1 -9.09071 -3.72364 0 -9.24816 -3.57885 0
25 1 13.9643 2.81191 0 -3.94302 28.6828 0
26 1 18.2116 -3.94822 0 -11.9273 -12.8682 0
27 1 -6.03051 -4.71161 0 5.19836 7.06411 0
28 1 -0.648967 -3.73563 0 9.7221 -11.5784 0
29 1 -10.6306 1.49608 0 6.82892 7.30034 0
30 1 -12.6581 3.96 0 -1.7161 7.7104 0
31 1 -5.84768 1.00771 0 5.69862 5.68913 0
32 1 -1.99557 -1.76979 0 6.83762 3.76433 0
33 1 12.0095 2.64813 0 16.9078 -22.3348 0
34 1 -3.57165 -1.52688 0 14.9894 -0.571991 0
35 1 7.78091 0.0685573 0 -15.3807 8.29443 0
36 1 12.5 -0.192393 0 -3.81149 2.27995 0
37 1 13.705 -1.47371 0 16.1099 -4.63038 0
38 1 15.9731 0.998989 0 -18.9877 3.77916 0
39 1 14.7424 -3.4165 0 15.5803 -19.818 0
40 1 -14.6852 -1.20035 0 -8.39794 -10.6637 0
41 1 -16.7477 4.1591 0 3.25411 -3.50142 0
42 1 -13.7411 -3.29022 0 6.59393 -3.34866 0
43 1 -17.8649 -3.8667 0 -8.31378 -20.5028 0
44 1 -13.7394 -4.35143 0 6.19109 7.7699 0
45 1 -2.35361 -0.748601 0 15.8994 4.99493 0
46 1 -8.78882 1.02153 0 5.11172 -13.3732 0
47 1 2.61715 0.294225 0 16.6162 7.51874 0
48 1 6.39268 -1.88855 0 -0.850899 -8.79625 0
49 1 11.2662 0.980348 0 6.67299 7.02574 0
50 1 5.72632 -4.70811 0 -10.1211 -7.84116 0
51 1 -3.26367 0.877664 0 -16.0108 11.0738 0
52 1 15.9917 -0.13195 0 27.484 11.1694 0
53 1 -16.7207 -4.55614 0 0.433756 -4.10728 0
54 1 -12.0904 -2.39866 0 9.78181 -0.240083 0
55 1 11.1323 -4.9228 0 -9.92506 -17.6249 0
56 1 -6.48255 -1.24233 0 -12.197 -6.31192 0
57 1 -12.2584 2.03743 0 7.79161 0.839878 0
58 1 -16.2169 -1.04058 0 6.41469 5.63226 0
59 1 -3.32098 -2.5824 0 13.9913 -6.71813 0
60 1 -5.58332 -0.755763 0 -8.6918 -13.4955 0
61 1 2.71729 3.89744 0 5.82843 5.5441 0
62 1 13.3314 1.60039 0 -19.0129 10.2668 0
63 1 3.90805 -4.02434 0 10.7134 -13.63 0
64 1 15.7045 4.88706 0 23.6667 3.70713 0
65 1 18.0207 -1.60142 0 10.9742 -0.243803 0
66 1 -9.97367 -3.16244 0 12.568 -5.13022 0
67 1 -16.3957 1.12494 0 12.1203 15.5541 0
68 1 -1.75448 -3.56081 0 -12.3711 -25.5416 0
69 1 -15.9443 3.72933 0 -15.2195 3.34389 0
70 1 -11.0486 2.24158 0 -0.521677 -2.50571 0
71 1 -6.76062 2.84497 0 -12.6569 2.34972 0
72 1 -3.67824 4.98672 0 6.74874 14.9159 0
73 1 -0.627376 4.18666 0 14.2105 5.39752 0
74 1 5.01016 1.73582 0 6.70698 -4.76276 0
75 1 18.7927 -4.39611 0 -35.7017 -5.24891 0
76 1 16.7119 2.15913 0 -4.85445 -24.4575 0
77 1 10.5692 0.312103 0 20.2991 -13.7477 0
78 1 14.7403 -0.712616 0 14.5854 8.08453 0
79 1 -13.1151 2.88515 0 8.8943 4.31574 0
80 1 -19.371 1.4602 0 -6.7042 -4.26391 0
81 1 -15.3247 2.31949 0 4.81633 -1.90455 0
82 1 -8.26533 2.21437 0 4.10883 2.4687 0
83 1 5.24909 2.80897 0 -5.2524 8.70597 0
84 1 -17.6573 -1.48214 0 4.10821 0.320178 0
85 1 -3.91128 3.4443 0 -8.4206 5.92693 0
86 1 3.68607 3.72952 0 -13.9315 -2.10562 0
87 1 -10.5184 4.64341 0 -12.5255 -3.48293 0
88 1 6.33685 2.28813 0 6.49561 -17.4409 0
89 1 6.14268 0.930546 0 1.1064 -7.90311 0
90 1 14.6812 2.16509 0 24.5806 2.46427 0
91 1 18.0339 4.71465 0 10.5752 11.8753 0
92 1 -19.1585 -0.0942585 0 -1.80375 7.89053 0
93 1 -17.054 1.82422 0 -8.20844 8.31338 0
94 1 -9.80562 1.92143 0 2.01343 -11.1625 0
95 1 -18.2695 2.14375 0 5.7545 -3.73532 0
96 1 -10.7134 0.461608 0 9.51291 -2.77736 0
97 1 3.55193 -0.173563 0 1.24548 -18.7668 0
98 1 -5.20562 1.654 0 11.8084 1.73566 0
99 1 3.11769 4.65937 0 -19.8312 -2.30718 0
100 1 11.8269 -3.25344 0 2.94919 -11.4703 0
101 2 0 0 0 0 0 0
ITEM: TIMESTEP
30000
ITEM: NUMBER OF ATOMS
101
ITEM: BOX BOUNDS ff ff pp
-2.0000000000000000e+01 2.0000000000000000e+01
-5.0000000000000000e+00 5.0000000000000000e+00
-5.0000000000000000e-01 5.0000000000000000e-01
ITEM: ATOMS id type x y z vx vy vz
1 1 6.38608 -1.96614 0 11.5608 15.5945 0
2 1 -8.54017 -4.21345 0 9.66365 11.896 0
3 1 -14.718 2.21942 0 3.6351 -0.662482 0
4 1 -18.1217 0.531822 0 -15.9085 -1.71194 0
5 1 -7.03382 -0.957952 0 -7.33076 -16.0599 0
6 1 -9.66501 -1.53658 0 -6.98136 7.021 0
7 1 -10.7302 -4.36766 0 -11.0105 9.50841 0
8 1 0.878943 -1.87043 0 10.05 3.9011 0
9 1 1.47724 2.76749 0 -16.8337 -5.30895 0
10 1 19.0115 -2.67595 0 -5.58691 15.1149 0
11 1 13.6561 3.80513 0 -3.66328 -1.16974 0
12 1 -0.0970932 3.934 0 -2.77921 -2.97588 0
13 1 11.9399 -3.06553 0 18.9634 19.0333 0
14 1 -14.604 -1.48948 0 -0.883094 -0.316547 0
15 1 -9.51756 -4.73533 0 4.26072 7.76765 0
16 1 -4.78575 -1.76367 0 10.8412 0.352297 0
17 1 -10.437 4.72846 0 -6.12104 -3.28487 0
18 1 -13.7115 3.23428 0 4.70758 -5.07474 0
19 1 14.2605 -1.72301 0 17.9814 -0.228183 0
20 1 -3.66025 -2.03716 0 23.654 0.907449 0
21 1 -1.64585 3.75517 0 -18.0165 -33.0627 0
22 1 0.486172 -3.98047 0 -8.6999 10.5522 0
23 1 -1.38926 -4.6061 0 -13.4232 -15.9838 0
24 1 -5.57001 -3.31591 0 12.0341 2.48763 0
25 1 7.90906 0.0729567 0 -12.0702 19.5131 0
26 1 14.3695 -2.39835 0 14.1815 -17.3092 0
27 1 -3.71227 -3.05959 0 -17.4888 -4.26864 0
28 1 3.94416 -4.90838 0 7.10053 7.40638 0
29 1 -13.8406 1.30931 0 2.52061 -13.9241 0
30 1 -12.081 2.59217 0 -21.6565 1.15099 0
31 1 -0.864578 2.62567 0 1.73311 -18.7618 0
32 1 1.06617 -4.82237 0 4.87625 20.4735 0
33 1 1.9709 -0.336713 0 -23.7836 -28.0451 0
34 1 1.04321 -0.91007 0 4.19035 -2.64292 0
35 1 13.2993 1.75013 0 13.3096 9.74521 0
36 1 16.0098 0.231767 0 6.35234 14.734 0
37 1 11.276 -2.41429 0 -4.40555 -4.56623 0
38 1 19.5968 -4.86279 0 2.80836 5.52995 0
39 1 18.1466 -2.72484 0 18.3475 2.62239 0
40 1 -18.9353 -3.27665 0 -3.65957 7.29563 0
41 1 -18.3168 3.78041 0 -11.9628 -4.15387 0
42 1 -12.9832 0.64828 0 -4.74495 -0.865235 0
43 1 -15.7871 3.4381 0 -9.60842 7.23369 0
44 1 -11.4144 -4.79115 0 -8.33058 -10.8925 0
45 1 -10.636 -0.768068 0 -4.14929 -3.91627 0
46 1 -7.39919 -2.61596 0 -3.28995 26.1402 0
47 1 2.02596 -1.07969 0 -1.71231 -2.67396 0
48 1 8.56841 -1.52623 0 1.78357 -3.68347 0
49 1 13.4844 4.68296 0 13.2105 -4.13238 0
50 1 19.3824 -4.15564 0 5.06517 1.53922 0
51 1 -7.29636 -4.26586 0 -13.471 5.9691 0
52 1 15.6963 3.57631 0 12.249 -4.08611 0
53 1 -13.4118 -2.84626 0 17.1296 8.20757 0
54 1 -6.83031 1.5324 0 -7.38503 -7.92958 0
55 1 3.62308 -4.14975 0 -21.782 -6.2732 0
56 1 -9.81255 3.39498 0 2.38202 5.75438 0
57 1 -12.5611 -2.68106 0 -2.09594 1.72138 0
58 1 -13.59 -0.102463 0 -4.73501 0.729939 0
59 1 1.42199 -3.52331 0 -4.57315 14.6091 0
60 1 -1.29797 1.30052 0 -2.56077 38.2593 0
61 1 3.09426 -1.24489 0 -9.0321 -2.0435 0
62 1 11.2825 -1.53237 0 11.8077 9.2078 0
63 1 2.28709 -2.83324 0 -7.72633 5.01075 0
64 1 11.9059 4.10652 0 0.372136 2.73373 0
65 1 16.1703 4.25336 0 -3.52626 -22.153 0
66 1 -7.95708 -1.71952 0 -6.20428 4.47575 0
67 1 -16.2065 0.57118 0 -9.90355 -5.26826 0
68 1 -5.49518 2.37545 0 6.28116 -8.07128 0
69 1 -18.8388 2.83758 0 -12.6841 -6.34037 0
70 1 -9.84334 4.30533 0 7.07403 -15.7561 0
71 1 -13.638 4.03065 0 0.44764 6.74942 0
72 1 -1.90762 4.72191 0 12.2961 -8.36551 0
73 1 -3.91967 0.969566 0 -12.6124 -1.63564 0
74 1 -1.72127 1.97471 0 8.31517 -14.9009 0
75 1 19.3232 1.96989 0 -9.79027 34.0415 0
76 1 11.7529 -4.04949 0 -6.00461 -10.8314 0
77 1 9.5976 -2.37443 0 -13.4857 5.34899 0
78 1 17.8153 -1.77341 0 -1.55179 6.44802 0
79 1 -12.0012 4.49043 0 1.76099 6.10409 0
80 1 -18.6996 -0.608614 0 -1.86559 -7.85059 0
81 1 -15.2909 2.99459 0 -8.24773 4.83587 0
82 1 -6.41173 -0.0335995 0 -2.90395 -3.20075 0
83 1 -0.729184 0.328632 0 -10.5979 -7.27114 0
84 1 -14.9333 1.31454 0 3.7232 3.77383 0
85 1 -10.9805 3.18162 0 -4.47276 1.59669 0
86 1 7.70561 -2.26314 0 -4.6092 -16.0163 0
87 1 -14.674 3.98439 0 -3.43856 -1.30596 0
88 1 -0.790437 4.7908 0 12.1442 -1.83078 0
89 1 4.48569 -2.84076 0 -4.87462 -4.38996 0
90 1 17.2686 -2.74434 0 -9.15461 -6.39142 0
91 1 12.5583 4.51715 0 -1.49504 8.9447 0
92 1 -15.2311 0.229378 0 -1.68319 -0.508371 0
93 1 -19.3221 3.7143 0 0.0907645 0.0473415 0
94 1 -7.82825 3.31386 0 13.1087 -11.7934 0
95 1 -15.5366 -3.83929 0 -6.47204 -10.0208 0
96 1 -11.9964 -0.3531 0 -2.0445 -6.76207 0
97 1 4.59515 4.62269 0 -6.95005 -31.416 0
98 1 -10.8512 1.02499 0 -6.00177 -11.9628 0
99 1 3.36165 4.28043 0 -6.70846 -7.16481 0
100 1 19.4611 -3.25972 0 -5.60365 4.47759 0
101 2 0 0 0 0 0 0
ITEM: TIMESTEP
40000
ITEM: NUMBER OF ATOMS
101
ITEM: BOX BOUNDS ff ff pp
-2.0000000000000000e+01 2.0000000000000000e+01
-5.0000000000000000e+00 5.0000000000000000e+00
-5.0000000000000000e-01 5.0000000000000000e-01
ITEM: ATOMS id type x y z vx vy vz
1 1 8.5428 0.574135 0 -11.0156 -1.54238 0
2 1 -4.73529 2.91295 0 3.44855 18.3216 0
3 1 -11.6983 1.97566 0 6.85141 4.41633 0
4 1 -18.3131 3.56377 0 11.4567 7.78698 0
5 1 -3.88781 1.86902 0 11.5592 -3.71603 0
6 1 -17.0231 -4.04486 0 -20.8508 -5.76415 0
7 1 -14.4242 -4.54895 0 6.93171 -6.02178 0
8 1 4.75686 0.108223 0 -7.07424 10.615 0
9 1 1.74849 3.57849 0 -11.2385 5.09425 0
10 1 18.1507 4.29364 0 -5.98862 -14.5817 0
11 1 15.7461 4.13711 0 4.61983 2.73141 0
12 1 3.06361 4.46503 0 -2.86687 -8.95843 0
13 1 16.8729 1.01229 0 -23.3681 -5.14326 0
14 1 -19.6345 0.706648 0 5.57081 12.4392 0
15 1 -12.0607 -0.987438 0 -2.70758 10.2959 0
16 1 2.55772 -4.98414 0 9.51022 13.4253 0
17 1 -14.2033 4.20144 0 4.27915 5.74586 0
18 1 -17.6284 3.27801 0 8.32495 -11.2164 0
19 1 13.6002 -2.36385 0 5.31816 9.4961 0
20 1 -14.5855 -2.69773 0 -0.944564 6.59701 0
21 1 0.0435869 -4.79609 0 -5.17548 -4.94536 0
22 1 -5.747 -4.01036 0 5.03253 -1.77272 0
23 1 -3.0438 2.29461 0 7.70654 -0.759443 0
24 1 -11.2033 -2.30522 0 27.2489 -6.02962 0
25 1 7.40381 -0.67576 0 -12.5703 18.3537 0
26 1 16.8155 -0.93111 0 4.56927 2.9754 0
27 1 -3.59589 1.15287 0 -6.82941 -9.84919 0
28 1 10.3459 1.11217 0 10.5449 10.8282 0
29 1 -15.0099 3.35081 0 13.0407 0.0767945 0
30 1 -13.7616 0.231983 0 -4.71262 -7.13609 0
31 1 -8.8467 4.37437 0 -5.46667 -10.0484 0
32 1 -7.90091 -4.89281 0 -17.6227 1.03433 0
33 1 3.56989 3.07499 0 3.54161 -1.95153 0
34 1 4.64334 -2.86955 0 -12.0785 12.4802 0
35 1 12.4347 0.644527 0 -4.39424 -0.17678 0
36 1 17.5362 -3.85341 0 11.4261 12.1453 0
37 1 -0.572804 2.85743 0 -7.78458 16.6472 0
38 1 15.9121 -1.11701 0 -15.4807 20.0345 0
39 1 16.5035 -1.99056 0 -8.24218 3.76003 0
40 1 -17.0226 0.170757 0 7.10306 -21.0391 0
41 1 -16.5739 4.85917 0 -15.2317 -5.89364 0
42 1 -10.0207 4.02067 0 4.91359 -5.85721 0
43 1 -14.5943 1.61667 0 31.4151 -14.7701 0
44 1 -15.2252 0.352024 0 14.768 15.1268 0
45 1 -15.3071 -3.54175 0 10.9593 -0.122885 0
46 1 -10.1023 0.780004 0 9.65061 -2.50192 0
47 1 2.46 -2.15288 0 -10.1497 3.16038 0
48 1 14.5932 1.55955 0 19.9505 -3.23728 0
49 1 17.3428 -2.1983 0 1.29179 -10.3169 0
50 1 16.8492 2.62553 0 3.55792 19.2264 0
51 1 -12.9865 -2.36709 0 2.28383 -5.48314 0
52 1 19.3831 2.03201 0 3.91451 10.1074 0
53 1 -17.3302 2.61341 0 -16.3561 6.1097 0
54 1 -9.49813 -4.56523 0 0.684054 -10.69 0
55 1 -7.27093 0.518745 0 -3.53819 6.40832 0
56 1 -7.56086 1.79237 0 11.0324 -10.6327 0
57 1 -13.6977 -3.871 0 3.21293 1.99784 0
58 1 -18.948 -1.29064 0 -16.9312 -3.35 0
59 1 1.78684 -4.3462 0 15.6779 -3.43686 0
60 1 -1.84853 1.85434 0 12.2483 6.09887 0
61 1 6.33719 4.17067 0 10.0865 -11.6348 0
62 1 5.99495 -4.26365 0 -3.01608 -0.53528 0
63 1 3.98328 2.40318 0 -14.6595 14.7383 0
64 1 19.6168 4.04591 0 10.2669 3.56644 0
65 1 11.5063 -1.64664 0 -11.9929 -12.2395 0
66 1 -15.0498 -1.74305 0 -5.61379 3.25785 0
67 1 -17.6305 -4.5188 0 2.351 14.4969 0
68 1 -2.1292 3.06734 0 5.6599 8.63056 0
69 1 -18.3843 4.68607 0 2.39826 -4.38215 0
70 1 -7.88683 2.84836 0 5.58863 -2.69718 0
71 1 -11.1336 1.46331 0 0.58918 -1.86999 0
72 1 -1.92069 0.108432 0 -17.8154 -18.3601 0
73 1 -2.59939 -4.68492 0 -2.98276 -5.07807 0
74 1 -5.50061 0.600959 0 8.67714 -3.68274 0
75 1 11.7146 -3.33973 0 -8.5783 -14.7575 0
76 1 8.34064 -3.06714 0 3.99426 16.6633 0
77 1 7.53641 -2.55066 0 -2.01795 9.81501 0
78 1 19.3505 -0.44598 0 -21.1359 -12.4778 0
79 1 -15.5601 4.19162 0 1.06842 -7.38582 0
80 1 -19.4393 -4.57976 0 -0.454093 12.945 0
81 1 -14.6745 -0.520842 0 -4.66653 -6.38885 0
82 1 -13.5528 4.75799 0 23.1393 -29.3487 0
83 1 -6.92519 -4.25774 0 -6.72535 -7.3469 0
84 1 -9.14678 3.75291 0 6.97416 -4.9935 0
85 1 -12.5034 3.8777 0 8.68639 18.1561 0
86 1 3.43865 1.74942 0 -18.0833 12.4642 0
87 1 -15.5766 2.12952 0 2.56909 -4.13143 0
88 1 -3.80089 4.49726 0 -19.0168 -7.45386 0
89 1 7.84758 -1.54066 0 17.5091 -19.8863 0
90 1 10.4046 -1.58362 0 3.51639 -21.3679 0
91 1 11.6514 -0.856392 0 -6.7212 -18.2183 0
92 1 -17.8269 -3.60162 0 -7.44811 10.4459 0
93 1 -16.224 0.883121 0 -5.90947 -3.52419 0
94 1 3.31444 -3.83533 0 -10.7811 -2.21712 0
95 1 -19.9762 -1.53745 0 -7.89355 8.03921 0
96 1 -13.8193 -0.726778 0 7.92322 3.69444 0
97 1 5.8122 -3.65611 0 10.9466 -14.5772 0
98 1 -6.28209 2.18333 0 2.40796 -3.15338 0
99 1 2.66938 1.13191 0 7.50391 -23.203 0
100 1 18.1847 -4.87642 0 -12.8031 9.87168 0
101 2 0 0 0 0 0 0
ITEM: TIMESTEP
50000
ITEM: NUMBER OF ATOMS
101
ITEM: BOX BOUNDS ff ff pp
-2.0000000000000000e+01 2.0000000000000000e+01
-5.0000000000000000e+00 5.0000000000000000e+00
-5.0000000000000000e-01 5.0000000000000000e-01
ITEM: ATOMS id type x y z vx vy vz
1 1 9.45304 2.23497 0 14.8573 -11.2541 0
2 1 5.27933 -1.75636 0 21.4013 8.71286 0
3 1 -7.74681 -0.147405 0 -9.30549 -14.4219 0
4 1 -15.7339 0.976952 0 -3.84374 -11.7412 0
5 1 -8.20377 2.48058 0 -19.2667 -10.0955 0
6 1 -16.3019 -1.74697 0 -8.67804 0.129579 0
7 1 -19.1151 -4.93476 0 -12.9456 3.75371 0
8 1 -3.56683 2.24945 0 12.5291 -0.436605 0
9 1 -10.1967 3.05703 0 -4.94887 -1.67085 0
10 1 9.539 -2.3406 0 -11.9779 6.96897 0
11 1 12.7038 4.14673 0 13.4412 -11.6792 0
12 1 -6.23602 -0.458601 0 10.8258 -11.9141 0
13 1 15.0328 -3.002 0 4.09987 16.7574 0
14 1 -11.5069 4.15693 0 14.946 7.20057 0
15 1 -15.9707 0.0784867 0 -10.5255 -15.0544 0
16 1 14.5547 -3.55122 0 3.64514 -3.88103 0
17 1 -5.306 -1.25452 0 8.06871 15.4743 0
18 1 -10.5017 1.24958 0 5.25657 -16.404 0
19 1 16.0026 1.10525 0 32.2839 4.21579 0
20 1 -8.72878 1.21476 0 6.03381 -7.55839 0
21 1 11.8411 -3.66423 0 6.09387 1.34126 0
22 1 -1.87278 0.178722 0 -10.7332 -0.821025 0
23 1 6.4997 -2.76977 0 -9.64805 -16.1218 0
24 1 -0.838471 -4.30659 0 -16.0995 -9.7917 0
25 1 4.77309 4.47308 0 -7.74824 -7.15697 0
26 1 19.8967 -4.39893 0 -11.7645 -0.39617 0
27 1 -0.551283 -0.78033 0 8.18326 1.1514 0
28 1 14.4083 4.3297 0 -5.36547 -2.20315 0
29 1 -8.2079 -3.44223 0 -0.640688 -8.20087 0
30 1 -18.9123 3.40198 0 -14.6364 7.17374 0
31 1 -2.63895 3.40886 0 17.1649 -2.19642 0
32 1 -13.7648 -3.72407 0 5.31789 -6.06178 0
33 1 5.02022 -4.24176 0 10.897 6.95274 0
34 1 3.71204 -4.33011 0 -4.25488 -12.0902 0
35 1 8.8281 4.13047 0 0.00697443 -24.5271 0
36 1 13.5591 2.1513 0 -1.75078 3.13003 0
37 1 -0.135499 0.811718 0 23.7604 8.43012 0
38 1 18.4082 -0.693649 0 1.91695 6.1859 0
39 1 7.14179 -1.49409 0 -9.31805 4.68507 0
40 1 -15.3034 3.39565 0 -11.4472 -7.56239 0
41 1 -11.1921 2.31603 0 8.14189 -5.0001 0
42 1 -5.51036 3.18216 0 -6.11519 13.9579 0
43 1 1.22477 -3.6278 0 15.2182 4.01755 0
44 1 -4.54119 3.5237 0 0.963015 1.77782 0
45 1 -7.93387 0.862117 0 3.1464 8.5824 0
46 1 -7.58553 -3.85676 0 -18.4751 4.31525 0
47 1 0.822043 -0.917668 0 15.4665 -0.749985 0
48 1 11.2574 0.441547 0 11.1276 3.95994 0
49 1 19.3122 -1.82706 0 3.33848 -10.3263 0
50 1 15.3341 3.58514 0 -4.35525 4.18082 0
51 1 -16.1331 3.06582 0 -12.1921 -5.60304 0
52 1 19.572 -0.505067 0 4.45212 4.81235 0
53 1 -19.2852 4.46387 0 9.06229 0.6216 0
54 1 -12.6844 -4.63585 0 2.94927 -10.0781 0
55 1 -4.60671 -3.69914 0 3.58004 -18.7641 0
56 1 -4.11687 -4.97142 0 -18.8298 -10.1852 0
57 1 -7.89419 -2.43104 0 5.78719 -6.08986 0
58 1 -17.4697 -1.41453 0 -10.5852 13.7812 0
59 1 -5.08712 -4.623 0 14.8551 -0.68414 0
60 1 1.91875 -0.0303518 0 -1.70917 12.272 0
61 1 7.67032 -4.35194 0 -17.3496 -9.08251 0
62 1 1.03186 4.27228 0 -0.100059 -3.03951 0
63 1 3.92924 4.95657 0 -13.3503 12.7009 0
64 1 16.8499 2.77065 0 0.106377 -13.5932 0
65 1 12.3013 -1.36282 0 -3.0607 20.1452 0
66 1 -16.2782 -3.32925 0 -10.3296 -12.0043 0
67 1 -17.7341 -0.720115 0 2.26778 7.20039 0
68 1 -2.24685 1.05067 0 -2.96248 -4.79104 0
69 1 -16.3312 -0.666802 0 -0.570314 -9.52962 0
70 1 -15.2466 -2.84066 0 6.03928 6.65502 0
71 1 -5.07423 1.47685 0 3.2748 2.79074 0
72 1 -2.92314 -0.283949 0 -1.37286 -2.47866 0
73 1 10.2109 0.911892 0 -2.90955 15.6547 0
74 1 -6.2851 -4.47442 0 -4.36245 -21.3487 0
75 1 11.6028 2.26383 0 2.97756 -6.91742 0
76 1 6.82253 -4.00979 0 15.8287 -1.26927 0
77 1 12.4933 1.05485 0 -5.95133 -5.59498 0
78 1 4.96197 3.40349 0 0.399292 -24.213 0
79 1 -13.1942 1.28375 0 0.446046 7.35776 0
80 1 -19.7863 0.392014 0 0.454434 2.17339 0
81 1 -13.8859 3.29175 0 17.3886 0.619817 0
82 1 -10.7023 -2.37936 0 -12.4751 4.87061 0
83 1 -8.45136 -0.566518 0 -6.76798 6.85773 0
84 1 -1.79848 2.08944 0 -6.04519 -14.8972 0
85 1 -6.08314 2.68947 0 3.69547 4.85102 0
86 1 -2.99678 -4.41697 0 17.0317 -12.1594 0
87 1 -10.8928 -1.30631 0 -1.99398 -23.5107 0
88 1 -7.71076 3.91982 0 1.15818 0.812619 0
89 1 7.00833 3.87196 0 -3.77236 2.87629 0
90 1 10.8747 4.28142 0 -27.1982 -12.6515 0
91 1 12.4645 2.48141 0 20.5113 20.5404 0
92 1 -16.579 4.53834 0 10.6275 -6.80843 0
93 1 -18.5972 -0.576806 0 -1.49692 8.43582 0
94 1 0.383498 -2.51617 0 -19.7542 -9.87904 0
95 1 -17.8695 4.68842 0 16.284 -7.17537 0
96 1 -9.3554 -0.360855 0 11.2064 9.5965 0
97 1 -0.351675 3.63926 0 -17.8067 4.26906 0
98 1 -6.8847 2.30583 0 -1.58327 3.80724 0
99 1 9.39605 0.191555 0 36.0226 11.2449 0
100 1 14.0394 -4.89046 0 -32.6846 5.35784 0
101 2 0 0 0 0 0 0
ITEM: TIMESTEP
60000
ITEM: NUMBER OF ATOMS
101
ITEM: BOX BOUNDS ff ff pp
-2.0000000000000000e+01 2.0000000000000000e+01
-5.0000000000000000e+00 5.0000000000000000e+00
-5.0000000000000000e-01 5.0000000000000000e-01
ITEM: ATOMS id type x y z vx vy vz
1 1 3.98614 -0.305847 0 -1.00412 10.6379 0
2 1 13.9031 0.488271 0 -2.80888 5.01752 0
3 1 -7.99967 -2.81482 0 -11.2721 -7.68687 0
4 1 -15.343 -4.13081 0 3.14471 1.25561 0
5 1 -3.13885 2.17057 0 15.0028 -17.9245 0
6 1 -15.1362 -0.177375 0 -11.5081 13.7428 0
7 1 -15.8025 4.51985 0 10.0977 15.7417 0
8 1 -0.750438 4.33718 0 7.35548 20.7298 0
9 1 -8.92603 -2.31985 0 -8.92244 10.4718 0
10 1 4.92466 2.9971 0 4.29079 13.4507 0
11 1 11.5253 1.2475 0 4.37893 13.248 0
12 1 -16.3801 1.60422 0 -0.473482 7.16189 0
13 1 12.8031 0.124151 0 4.75493 -2.92559 0
14 1 -3.98215 4.92612 0 4.51864 3.28256 0
15 1 -19.3507 4.36369 0 -0.0210367 -12.3391 0
16 1 10.8477 -2.39201 0 -14.9932 0.952023 0
17 1 -2.18519 2.98172 0 -9.53155 0.529768 0
18 1 -12.1241 -4.27335 0 -0.453376 17.5095 0
19 1 4.55745 0.531273 0 -14.7227 -3.33986 0
20 1 -8.653 -4.06556 0 -4.99239 -5.34969 0
21 1 12.7695 -1.48824 0 -1.40833 8.34668 0
22 1 -4.46364 3.78834 0 14.2567 8.10546 0
23 1 1.69038 -1.17462 0 -14.3559 -1.35178 0
24 1 2.94119 -4.27122 0 -0.904781 -3.62398 0
25 1 0.366075 -3.09267 0 -7.7026 16.1949 0
26 1 14.2329 4.48324 0 9.19405 11.4131 0
27 1 0.0970111 -2.30569 0 12.5982 -12.9537 0
28 1 5.28469 -4.73496 0 3.51187 19.5867 0
29 1 -16.8985 0.696942 0 15.0726 9.66198 0
30 1 -8.46339 4.31171 0 -0.750028 -10.8811 0
31 1 3.9084 4.50577 0 4.54569 5.32374 0
32 1 -19.6478 -3.30419 0 -2.89441 -2.01068 0
33 1 -3.89649 -2.88485 0 -9.32832 0.0213226 0
34 1 0.00535152 3.31079 0 1.50767 14.5858 0
35 1 11.4372 -1.09395 0 13.4857 21.8549 0
36 1 19.3543 1.40734 0 -4.7654 -11.685 0
37 1 3.6044 2.74354 0 -1.54296 6.97557 0
38 1 14.2749 3.45789 0 -27.7322 -17.0735 0
39 1 16.627 -2.2975 0 12.3112 -12.099 0
40 1 -14.3221 4.8773 0 17.7276 22.4508 0
41 1 -16.7251 -1.96373 0 -8.27386 -2.51953 0
42 1 -1.70412 1.43465 0 3.84867 -6.50186 0
43 1 10.4924 2.26673 0 8.75462 -17.5858 0
44 1 0.386986 0.654636 0 4.09308 -4.87989 0
45 1 -8.6646 -1.60084 0 -5.57313 5.35468 0
46 1 -10.0954 -4.33385 0 -6.3915 1.78798 0
47 1 8.47318 4.68409 0 -28.2084 20.3582 0
48 1 12.4609 -2.80223 0 -17.7924 0.473917 0
49 1 14.6558 -3.53896 0 -6.31256 0.32937 0
50 1 19.5569 0.265436 0 -1.2428 -7.38821 0
51 1 -12.9154 0.740416 0 13.9567 10.7311 0
52 1 15.5146 4.46862 0 -7.3682 2.59553 0